<?xml version="1.0"?>
<VTKFile type="UnstructuredGrid" version="0.1" byte_order="LittleEndian" compressor="vtkZLibDataCompressor">
<UnstructuredGrid>
<Piece NumberOfPoints="2500" NumberOfCells="1600">
<Points>
<DataArray type="Float32" NumberOfComponents="3" format="ascii">
-3.630000e+00 0.000000e+00 0.000000e+00
-3.448500e+00 0.000000e+00 0.000000e+00
-3.267000e+00 0.000000e+00 0.000000e+00
-3.085500e+00 0.000000e+00 0.000000e+00
-2.904000e+00 0.000000e+00 0.000000e+00
-3.630000e+00 1.282500e-01 0.000000e+00
-3.448500e+00 1.282500e-01 0.000000e+00
-3.267000e+00 1.282500e-01 0.000000e+00
-3.085500e+00 1.282500e-01 0.000000e+00
-2.904000e+00 1.282500e-01 0.000000e+00
-3.630000e+00 2.565000e-01 0.000000e+00
-3.448500e+00 2.565000e-01 0.000000e+00
-3.267000e+00 2.565000e-01 0.000000e+00
-3.085500e+00 2.565000e-01 0.000000e+00
-2.904000e+00 2.565000e-01 0.000000e+00
-3.630000e+00 3.847500e-01 0.000000e+00
-3.448500e+00 3.847500e-01 0.000000e+00
-3.267000e+00 3.847500e-01 0.000000e+00
-3.085500e+00 3.847500e-01 0.000000e+00
-2.904000e+00 3.847500e-01 0.000000e+00
-3.630000e+00 5.130000e-01 0.000000e+00
-3.448500e+00 5.130000e-01 0.000000e+00
-3.267000e+00 5.130000e-01 0.000000e+00
-3.085500e+00 5.130000e-01 0.000000e+00
-2.904000e+00 5.130000e-01 0.000000e+00
-2.904000e+00 0.000000e+00 0.000000e+00
-2.722500e+00 0.000000e+00 0.000000e+00
-2.541000e+00 0.000000e+00 0.000000e+00
-2.359500e+00 0.000000e+00 0.000000e+00
-2.178000e+00 0.000000e+00 0.000000e+00
-2.904000e+00 1.282500e-01 0.000000e+00
-2.722500e+00 1.282500e-01 0.000000e+00
-2.541000e+00 1.282500e-01 0.000000e+00
-2.359500e+00 1.282500e-01 0.000000e+00
-2.178000e+00 1.282500e-01 0.000000e+00
-2.904000e+00 2.565000e-01 0.000000e+00
-2.722500e+00 2.565000e-01 0.000000e+00
-2.541000e+00 2.565000e-01 0.000000e+00
-2.359500e+00 2.565000e-01 0.000000e+00
-2.178000e+00 2.565000e-01 0.000000e+00
-2.904000e+00 3.847500e-01 0.000000e+00
-2.722500e+00 3.847500e-01 0.000000e+00
-2.541000e+00 3.847500e-01 0.000000e+00
-2.359500e+00 3.847500e-01 0.000000e+00
-2.178000e+00 3.847500e-01 0.000000e+00
-2.904000e+00 5.130000e-01 0.000000e+00
-2.722500e+00 5.130000e-01 0.000000e+00
-2.541000e+00 5.130000e-01 0.000000e+00
-2.359500e+00 5.130000e-01 0.000000e+00
-2.178000e+00 5.130000e-01 0.000000e+00
-2.178000e+00 0.000000e+00 0.000000e+00
-1.996500e+00 0.000000e+00 0.000000e+00
-1.815000e+00 0.000000e+00 0.000000e+00
-1.633500e+00 0.000000e+00 0.000000e+00
-1.452000e+00 0.000000e+00 0.000000e+00
-2.178000e+00 1.282500e-01 0.000000e+00
-1.996500e+00 1.282500e-01 0.000000e+00
-1.815000e+00 1.282500e-01 0.000000e+00
-1.633500e+00 1.282500e-01 0.000000e+00
-1.452000e+00 1.282500e-01 0.000000e+00
-2.178000e+00 2.565000e-01 0.000000e+00
-1.996500e+00 2.565000e-01 0.000000e+00
-1.815000e+00 2.565000e-01 0.000000e+00
-1.633500e+00 2.565000e-01 0.000000e+00
-1.452000e+00 2.565000e-01 0.000000e+00
-2.178000e+00 3.847500e-01 0.000000e+00
-1.996500e+00 3.847500e-01 0.000000e+00
-1.815000e+00 3.847500e-01 0.000000e+00
-1.633500e+00 3.847500e-01 0.000000e+00
-1.452000e+00 3.847500e-01 0.000000e+00
-2.178000e+00 5.130000e-01 0.000000e+00
-1.996500e+00 5.130000e-01 0.000000e+00
-1.815000e+00 5.130000e-01 0.000000e+00
-1.633500e+00 5.130000e-01 0.000000e+00
-1.452000e+00 5.130000e-01 0.000000e+00
-1.452000e+00 0.000000e+00 0.000000e+00
-1.270500e+00 0.000000e+00 0.000000e+00
-1.089000e+00 0.000000e+00 0.000000e+00
-9.075000e-01 0.000000e+00 0.000000e+00
-7.260000e-01 0.000000e+00 0.000000e+00
-1.452000e+00 1.282500e-01 0.000000e+00
-1.270500e+00 1.282500e-01 0.000000e+00
-1.089000e+00 1.282500e-01 0.000000e+00
-9.075000e-01 1.282500e-01 0.000000e+00
-7.260000e-01 1.282500e-01 0.000000e+00
-1.452000e+00 2.565000e-01 0.000000e+00
-1.270500e+00 2.565000e-01 0.000000e+00
-1.089000e+00 2.565000e-01 0.000000e+00
-9.075000e-01 2.565000e-01 0.000000e+00
-7.260000e-01 2.565000e-01 0.000000e+00
-1.452000e+00 3.847500e-01 0.000000e+00
-1.270500e+00 3.847500e-01 0.000000e+00
-1.089000e+00 3.847500e-01 0.000000e+00
-9.075000e-01 3.847500e-01 0.000000e+00
-7.260000e-01 3.847500e-01 0.000000e+00
-1.452000e+00 5.130000e-01 0.000000e+00
-1.270500e+00 5.130000e-01 0.000000e+00
-1.089000e+00 5.130000e-01 0.000000e+00
-9.075000e-01 5.130000e-01 0.000000e+00
-7.260000e-01 5.130000e-01 0.000000e+00
-7.260000e-01 0.000000e+00 0.000000e+00
-5.445000e-01 0.000000e+00 0.000000e+00
-3.630000e-01 0.000000e+00 0.000000e+00
-1.815000e-01 0.000000e+00 0.000000e+00
0.000000e+00 0.000000e+00 0.000000e+00
-7.260000e-01 1.282500e-01 0.000000e+00
-5.445000e-01 1.282500e-01 0.000000e+00
-3.630000e-01 1.282500e-01 0.000000e+00
-1.815000e-01 1.282500e-01 0.000000e+00
0.000000e+00 1.282500e-01 0.000000e+00
-7.260000e-01 2.565000e-01 0.000000e+00
-5.445000e-01 2.565000e-01 0.000000e+00
-3.630000e-01 2.565000e-01 0.000000e+00
-1.815000e-01 2.565000e-01 0.000000e+00
0.000000e+00 2.565000e-01 0.000000e+00
-7.260000e-01 3.847500e-01 0.000000e+00
-5.445000e-01 3.847500e-01 0.000000e+00
-3.630000e-01 3.847500e-01 0.000000e+00
-1.815000e-01 3.847500e-01 0.000000e+00
0.000000e+00 3.847500e-01 0.000000e+00
-7.260000e-01 5.130000e-01 0.000000e+00
-5.445000e-01 5.130000e-01 0.000000e+00
-3.630000e-01 5.130000e-01 0.000000e+00
-1.815000e-01 5.130000e-01 0.000000e+00
0.000000e+00 5.130000e-01 0.000000e+00
0.000000e+00 0.000000e+00 0.000000e+00
1.815000e-01 0.000000e+00 0.000000e+00
3.630000e-01 0.000000e+00 0.000000e+00
5.445000e-01 0.000000e+00 0.000000e+00
7.260000e-01 0.000000e+00 0.000000e+00
0.000000e+00 1.282500e-01 0.000000e+00
1.815000e-01 1.282500e-01 0.000000e+00
3.630000e-01 1.282500e-01 0.000000e+00
5.445000e-01 1.282500e-01 0.000000e+00
7.260000e-01 1.282500e-01 0.000000e+00
0.000000e+00 2.565000e-01 0.000000e+00
1.815000e-01 2.565000e-01 0.000000e+00
3.630000e-01 2.565000e-01 0.000000e+00
5.445000e-01 2.565000e-01 0.000000e+00
7.260000e-01 2.565000e-01 0.000000e+00
0.000000e+00 3.847500e-01 0.000000e+00
1.815000e-01 3.847500e-01 0.000000e+00
3.630000e-01 3.847500e-01 0.000000e+00
5.445000e-01 3.847500e-01 0.000000e+00
7.260000e-01 3.847500e-01 0.000000e+00
0.000000e+00 5.130000e-01 0.000000e+00
1.815000e-01 5.130000e-01 0.000000e+00
3.630000e-01 5.130000e-01 0.000000e+00
5.445000e-01 5.130000e-01 0.000000e+00
7.260000e-01 5.130000e-01 0.000000e+00
7.260000e-01 0.000000e+00 0.000000e+00
9.075000e-01 0.000000e+00 0.000000e+00
1.089000e+00 0.000000e+00 0.000000e+00
1.270500e+00 0.000000e+00 0.000000e+00
1.452000e+00 0.000000e+00 0.000000e+00
7.260000e-01 1.282500e-01 0.000000e+00
9.075000e-01 1.282500e-01 0.000000e+00
1.089000e+00 1.282500e-01 0.000000e+00
1.270500e+00 1.282500e-01 0.000000e+00
1.452000e+00 1.282500e-01 0.000000e+00
7.260000e-01 2.565000e-01 0.000000e+00
9.075000e-01 2.565000e-01 0.000000e+00
1.089000e+00 2.565000e-01 0.000000e+00
1.270500e+00 2.565000e-01 0.000000e+00
1.452000e+00 2.565000e-01 0.000000e+00
7.260000e-01 3.847500e-01 0.000000e+00
9.075000e-01 3.847500e-01 0.000000e+00
1.089000e+00 3.847500e-01 0.000000e+00
1.270500e+00 3.847500e-01 0.000000e+00
1.452000e+00 3.847500e-01 0.000000e+00
7.260000e-01 5.130000e-01 0.000000e+00
9.075000e-01 5.130000e-01 0.000000e+00
1.089000e+00 5.130000e-01 0.000000e+00
1.270500e+00 5.130000e-01 0.000000e+00
1.452000e+00 5.130000e-01 0.000000e+00
1.452000e+00 0.000000e+00 0.000000e+00
1.633500e+00 0.000000e+00 0.000000e+00
1.815000e+00 0.000000e+00 0.000000e+00
1.996500e+00 0.000000e+00 0.000000e+00
2.178000e+00 0.000000e+00 0.000000e+00
1.452000e+00 1.282500e-01 0.000000e+00
1.633500e+00 1.282500e-01 0.000000e+00
1.815000e+00 1.282500e-01 0.000000e+00
1.996500e+00 1.282500e-01 0.000000e+00
2.178000e+00 1.282500e-01 0.000000e+00
1.452000e+00 2.565000e-01 0.000000e+00
1.633500e+00 2.565000e-01 0.000000e+00
1.815000e+00 2.565000e-01 0.000000e+00
1.996500e+00 2.565000e-01 0.000000e+00
2.178000e+00 2.565000e-01 0.000000e+00
1.452000e+00 3.847500e-01 0.000000e+00
1.633500e+00 3.847500e-01 0.000000e+00
1.815000e+00 3.847500e-01 0.000000e+00
1.996500e+00 3.847500e-01 0.000000e+00
2.178000e+00 3.847500e-01 0.000000e+00
1.452000e+00 5.130000e-01 0.000000e+00
1.633500e+00 5.130000e-01 0.000000e+00
1.815000e+00 5.130000e-01 0.000000e+00
1.996500e+00 5.130000e-01 0.000000e+00
2.178000e+00 5.130000e-01 0.000000e+00
2.178000e+00 0.000000e+00 0.000000e+00
2.359500e+00 0.000000e+00 0.000000e+00
2.541000e+00 0.000000e+00 0.000000e+00
2.722500e+00 0.000000e+00 0.000000e+00
2.904000e+00 0.000000e+00 0.000000e+00
2.178000e+00 1.282500e-01 0.000000e+00
2.359500e+00 1.282500e-01 0.000000e+00
2.541000e+00 1.282500e-01 0.000000e+00
2.722500e+00 1.282500e-01 0.000000e+00
2.904000e+00 1.282500e-01 0.000000e+00
2.178000e+00 2.565000e-01 0.000000e+00
2.359500e+00 2.565000e-01 0.000000e+00
2.541000e+00 2.565000e-01 0.000000e+00
2.722500e+00 2.565000e-01 0.000000e+00
2.904000e+00 2.565000e-01 0.000000e+00
2.178000e+00 3.847500e-01 0.000000e+00
2.359500e+00 3.847500e-01 0.000000e+00
2.541000e+00 3.847500e-01 0.000000e+00
2.722500e+00 3.847500e-01 0.000000e+00
2.904000e+00 3.847500e-01 0.000000e+00
2.178000e+00 5.130000e-01 0.000000e+00
2.359500e+00 5.130000e-01 0.000000e+00
2.541000e+00 5.130000e-01 0.000000e+00
2.722500e+00 5.130000e-01 0.000000e+00
2.904000e+00 5.130000e-01 0.000000e+00
2.904000e+00 0.000000e+00 0.000000e+00
3.085500e+00 0.000000e+00 0.000000e+00
3.267000e+00 0.000000e+00 0.000000e+00
3.448500e+00 0.000000e+00 0.000000e+00
3.630000e+00 0.000000e+00 0.000000e+00
2.904000e+00 1.282500e-01 0.000000e+00
3.085500e+00 1.282500e-01 0.000000e+00
3.267000e+00 1.282500e-01 0.000000e+00
3.448500e+00 1.282500e-01 0.000000e+00
3.630000e+00 1.282500e-01 0.000000e+00
2.904000e+00 2.565000e-01 0.000000e+00
3.085500e+00 2.565000e-01 0.000000e+00
3.267000e+00 2.565000e-01 0.000000e+00
3.448500e+00 2.565000e-01 0.000000e+00
3.630000e+00 2.565000e-01 0.000000e+00
2.904000e+00 3.847500e-01 0.000000e+00
3.085500e+00 3.847500e-01 0.000000e+00
3.267000e+00 3.847500e-01 0.000000e+00
3.448500e+00 3.847500e-01 0.000000e+00
3.630000e+00 3.847500e-01 0.000000e+00
2.904000e+00 5.130000e-01 0.000000e+00
[...]
<PointData>
<DataArray type="Float32" Name="V1" format="ascii">
0.000000e+00
0.000000e+00
0.000000e+00
0.000000e+00
0.000000e+00
1.264110e-02
1.104160e-02
9.687160e-03
8.577760e-03
7.713420e-03
2.028400e-02
1.823660e-02
1.644550e-02
1.491070e-02
1.363220e-02
2.292870e-02
2.158490e-02
2.027490e-02
1.899870e-02
1.775630e-02
2.057510e-02
2.108650e-02
2.117550e-02
2.084190e-02
2.008580e-02
0.000000e+00
0.000000e+00
0.000000e+00
0.000000e+00
0.000000e+00
7.713420e-03
6.728320e-03
6.025880e-03
5.606100e-03
5.468990e-03
1.363220e-02
1.215660e-02
1.106000e-02
1.034250e-02
1.000400e-02
1.775630e-02
1.628470e-02
1.510230e-02
1.420910e-02
1.360510e-02
2.008580e-02
1.911290e-02
1.815290e-02
1.720600e-02
1.627220e-02
0.000000e+00
0.000000e+00
0.000000e+00
0.000000e+00
0.000000e+00
5.468990e-03
5.463230e-03
5.423260e-03
5.349070e-03
5.240660e-03
1.000400e-02
9.913550e-03
9.731150e-03
9.456820e-03
9.090560e-03
1.360510e-02
1.335100e-02
1.292370e-02
1.232330e-02
1.154970e-02
1.627220e-02
1.577540e-02
1.500080e-02
1.394840e-02
1.261810e-02
0.000000e+00
0.000000e+00
0.000000e+00
0.000000e+00
0.000000e+00
5.240660e-03
3.755910e-03
3.654460e-03
4.936320e-03
7.601500e-03
9.090560e-03
6.411290e-03
5.942180e-03
7.683230e-03
1.163440e-02
1.154970e-02
7.966160e-03
6.863160e-03
8.240710e-03
1.209880e-02
1.261810e-02
8.420500e-03
6.417410e-03
6.608770e-03
8.994610e-03
0.000000e+00
0.000000e+00
0.000000e+00
0.000000e+00
0.000000e+00
7.601500e-03
3.492330e-03
-3.188290e-03
-1.244040e-02
-2.426390e-02
1.163440e-02
2.946550e-03
-8.747220e-03
-2.344690e-02
-4.115240e-02
1.209880e-02
-1.637350e-03
-1.667680e-02
-3.301950e-02
-5.066560e-02
8.994610e-03
-1.025930e-02
-2.697700e-02
-4.115830e-02
-5.280340e-02
0.000000e+00
0.000000e+00
0.000000e+00
0.000000e+00
0.000000e+00
-2.426390e-02
-2.324550e-02
-2.221670e-02
-2.117750e-02
-2.012800e-02
-4.115240e-02
-3.840530e-02
-3.586610e-02
-3.353480e-02
-3.141140e-02
-5.066560e-02
-4.547950e-02
-4.094820e-02
-3.707190e-02
-3.385040e-02
-5.280340e-02
-4.446800e-02
-3.746300e-02
-3.178860e-02
-2.744470e-02
0.000000e+00
0.000000e+00
0.000000e+00
0.000000e+00
0.000000e+00
-2.012800e-02
-1.785800e-02
-1.485270e-02
-1.111220e-02
-6.636460e-03
-3.141140e-02
-2.779970e-02
-2.305260e-02
-1.717000e-02
-1.015190e-02
-3.385040e-02
-2.982520e-02
-2.459950e-02
-1.817320e-02
-1.054620e-02
-2.744470e-02
-2.393450e-02
-1.949350e-02
-1.412180e-02
-7.819490e-03
0.000000e+00
0.000000e+00
0.000000e+00
0.000000e+00
0.000000e+00
-6.636460e-03
-2.928630e-03
-1.615600e-05
2.100950e-03
3.422690e-03
-1.015190e-02
-4.209300e-03
4.874190e-04
3.938290e-03
6.143300e-03
-1.054620e-02
-3.842010e-03
1.510720e-03
5.512010e-03
8.161830e-03
-7.819490e-03
-1.826770e-03
3.053760e-03
6.822110e-03
9.478270e-03
0.000000e+00
0.000000e+00
0.000000e+00
0.000000e+00
0.000000e+00
3.422690e-03
4.949680e-03
6.169690e-03
7.082710e-03
7.688740e-03
6.143300e-03
8.653900e-03
1.067110e-02
1.219490e-02
1.322530e-02
8.161830e-03
1.111270e-02
1.350430e-02
1.533660e-02
1.660980e-02
9.478270e-03
1.232590e-02
1.466910e-02
1.650790e-02
1.784210e-02
0.000000e+00
0.000000e+00
0.000000e+00
0.000000e+00
0.000000e+00
7.688740e-03
8.266990e-03
8.870140e-03
9.498210e-03
1.015120e-02
1.322530e-02
1.429430e-02
1.535290e-02
1.640120e-02
1.743930e-02
1.660980e-02
1.808190e-02
1.944830e-02
2.070910e-02
2.186420e-02
1.784210e-02
1.962980e-02
2.115630e-02
2.242170e-02
2.342600e-02
2.057510e-02
2.108650e-02
2.117550e-02
2.084190e-02
2.008580e-02
2.078850e-02
2.097390e-02
2.100950e-02
2.089550e-02
2.063180e-02
2.103660e-02
2.096030e-02
2.091600e-02
2.090360e-02
2.092330e-02
2.131930e-02
2.104580e-02
2.089480e-02
2.086630e-02
2.096020e-02
2.163650e-02
2.123030e-02
2.094590e-02
2.078340e-02
2.074260e-02
2.008580e-02
1.911290e-02
1.815290e-02
1.720600e-02
1.627220e-02
2.063180e-02
2.007550e-02
1.943210e-02
1.870180e-02
1.788450e-02
2.092330e-02
2.064940e-02
2.024810e-02
1.971940e-02
1.906340e-02
2.096020e-02
2.083460e-02
2.060080e-02
2.025900e-02
1.980900e-02
2.074260e-02
2.063110e-02
2.049040e-02
2.032040e-02
2.012120e-02
1.627220e-02
1.577540e-02
1.500080e-02
1.394840e-02
1.261810e-02
1.788450e-02
1.699170e-02
1.592960e-02
1.469810e-02
1.329740e-02
1.906340e-02
1.776990e-02
1.652080e-02
1.531600e-02
1.415560e-02
1.980900e-02
1.811020e-02
1.677450e-02
1.580200e-02
1.519270e-02
2.012120e-02
1.801240e-02
1.669070e-02
1.615620e-02
1.640870e-02
1.261810e-02
8.420500e-03
6.417410e-03
6.608770e-03
8.994610e-03
1.329740e-02
8.930090e-03
6.179010e-03
5.044160e-03
5.525540e-03
1.415560e-02
9.519250e-03
6.166080e-03
4.096120e-03
3.309380e-03
1.519270e-02
1.018800e-02
6.378620e-03
3.764670e-03
2.346140e-03
1.640870e-02
1.093630e-02
6.816630e-03
4.049800e-03
2.635800e-03
8.994610e-03
-1.025930e-02
-2.697700e-02
-4.115830e-02
-5.280340e-02
5.525540e-03
-1.476150e-02
-3.126550e-02
-4.398650e-02
-5.292440e-02
3.309380e-03
-1.591520e-02
-3.086640e-02
-4.154420e-02
-4.794860e-02
2.346140e-03
-1.372050e-02
-2.577970e-02
-3.383150e-02
-3.787580e-02
2.635800e-03
-8.177300e-03
-1.600530e-02
-2.084830e-02
-2.270610e-02
-5.280340e-02
-4.446800e-02
-3.746300e-02
-3.178860e-02
-2.744470e-02
-5.292440e-02
-4.452260e-02
-3.664040e-02
-2.927810e-02
-2.243540e-02
-4.794860e-02
-4.036790e-02
-3.251730e-02
-2.439690e-02
-1.600650e-02
-3.787580e-02
-3.200400e-02
-2.509370e-02
-1.714510e-02
-8.158190e-03
-2.270610e-02
-1.943070e-02
-1.436960e-02
-7.522830e-03
1.109670e-03
-2.744470e-02
-2.393450e-02
-1.949350e-02
-1.412180e-02
-7.819490e-03
-2.243540e-02
-2.062070e-02
-1.735660e-02
-1.264310e-02
-6.480150e-03
-1.600650e-02
-1.536220e-02
-1.316400e-02
-9.411920e-03
-4.105890e-03
-8.158190e-03
-8.159140e-03
-6.915870e-03
-4.428400e-03
-6.967260e-04
1.109670e-03
9.886430e-04
1.387910e-03
2.307480e-03
3.747350e-03
-7.819490e-03
-1.826770e-03
3.053760e-03
6.822110e-03
9.478270e-03
-6.480150e-03
-3.272560e-05
5.007450e-03
8.640390e-03
1.086610e-02
-4.105890e-03
2.379910e-03
7.283380e-03
1.060450e-02
1.234340e-02
-6.967260e-04
5.411130e-03
9.881550e-03
1.271450e-02
1.391010e-02
3.747350e-03
9.060930e-03
1.280190e-02
1.497040e-02
1.556630e-02
9.478270e-03
1.232590e-02
1.466910e-02
1.650790e-02
1.784210e-02
1.086610e-02
1.344590e-02
1.558060e-02
1.727040e-02
1.851510e-02
1.234340e-02
1.458590e-02
1.645960e-02
1.796440e-02
1.910030e-02
1.391010e-02
1.574620e-02
1.730610e-02
1.858990e-02
1.959760e-02
1.556630e-02
1.692650e-02
1.812010e-02
1.914690e-02
2.000700e-02
1.784210e-02
1.962980e-02
2.115630e-02
2.242170e-02
2.342600e-02
1.851510e-02
2.037400e-02
2.193900e-02
2.321010e-02
2.418740e-02
1.910030e-02
2.096360e-02
2.250520e-02
2.372520e-02
2.462360e-02
1.959760e-02
2.139850e-02
2.285500e-02
2.396700e-02
2.473470e-02
2.000700e-02
2.167870e-02
2.298830e-02
2.393560e-02
2.452060e-02
2.163650e-02
2.123030e-02
2.094590e-02
2.078340e-02
2.074260e-02
2.197900e-02
2.158650e-02
2.129230e-02
2.109660e-02
2.099920e-02
2.233590e-02
2.198080e-02
2.169870e-02
2.148960e-02
2.135350e-02
2.270730e-02
2.241340e-02
2.216510e-02
2.196250e-02
2.180550e-02
2.309330e-02
2.288430e-02
2.269160e-02
2.251520e-02
2.235510e-02
2.074260e-02
2.063110e-02
2.049040e-02
2.032040e-02
2.012120e-02
2.099920e-02
2.075570e-02
2.057240e-02
2.044950e-02
2.038680e-02
2.135350e-02
2.099740e-02
2.077370e-02
2.068240e-02
2.072350e-02
2.180550e-02
2.135620e-02
2.109420e-02
2.101920e-02
2.113140e-02
2.235510e-02
2.183230e-02
2.153390e-02
2.145990e-02
2.161030e-02
2.012120e-02
1.801240e-02
1.669070e-02
1.615620e-02
1.640870e-02
2.038680e-02
1.794340e-02
1.667650e-02
1.658610e-02
1.767230e-02
2.072350e-02
1.807460e-02
1.688750e-02
1.716220e-02
1.889880e-02
2.113140e-02
1.840600e-02
1.732370e-02
1.788440e-02
2.008810e-02
2.161030e-02
1.893770e-02
1.798510e-02
1.875270e-02
2.124030e-02
1.640870e-02
1.093630e-02
6.816630e-03
4.049800e-03
2.635800e-03
1.767230e-02
1.204580e-02
8.069150e-03
5.742390e-03
5.065500e-03
1.889880e-02
1.358110e-02
9.962510e-03
8.042920e-03
7.822370e-03
2.008810e-02
1.554230e-02
1.249670e-02
1.095140e-02
1.090640e-02
2.124030e-02
1.792920e-02
1.567170e-02
1.446780e-02
1.431760e-02
2.635800e-03
-8.177300e-03
-1.600530e-02
-2.084830e-02
-2.270610e-02
5.065500e-03
1.748920e-03
-7.514930e-04
-2.435740e-03
-3.303810e-03
7.822370e-03
1.075550e-02
1.272840e-02
1.374120e-02
1.379380e-02
1.090640e-02
1.884240e-02
2.443450e-02
2.768260e-02
2.858680e-02
1.431760e-02
2.600970e-02
3.436670e-02
3.938850e-02
4.107510e-02
-2.270610e-02
-1.943070e-02
-1.436960e-02
-7.522830e-03
1.109670e-03
-3.303810e-03
-5.103200e-03
-3.700850e-03
9.032410e-04
8.709070e-03
1.379380e-02
8.691340e-03
7.588110e-03
1.048420e-02
1.737950e-02
2.858680e-02
2.195290e-02
1.949730e-02
2.121990e-02
2.712090e-02
4.107510e-02
3.468150e-02
3.202660e-02
3.311050e-02
3.793330e-02
1.109670e-03
9.886430e-04
1.387910e-03
2.307480e-03
3.747350e-03
8.709070e-03
8.468430e-03
8.303350e-03
8.213800e-03
8.199800e-03
1.737950e-02
1.642040e-02
1.529080e-02
1.399050e-02
1.251970e-02
2.712090e-02
2.484460e-02
2.235020e-02
1.963760e-02
1.670700e-02
3.793330e-02
3.374090e-02
2.948160e-02
2.515520e-02
2.076170e-02
3.747350e-03
9.060930e-03
1.280190e-02
1.497040e-02
1.556630e-02
8.199800e-03
1.260000e-02
1.558250e-02
1.714730e-02
1.729420e-02
1.251970e-02
1.600820e-02
1.824860e-02
1.924100e-02
1.898510e-02
1.670700e-02
1.928550e-02
2.080030e-02
2.125150e-02
2.063900e-02
2.076170e-02
2.243180e-02
2.323760e-02
2.317890e-02
2.225580e-02
1.556630e-02
1.692650e-02
1.812010e-02
1.914690e-02
2.000700e-02
1.729420e-02
1.823100e-02
1.910380e-02
1.991260e-02
2.065740e-02
1.898510e-02
1.952700e-02
2.009440e-02
2.068710e-02
2.130530e-02
2.063900e-02
2.081460e-02
2.109170e-02
2.147040e-02
2.195070e-02
2.225580e-02
2.209370e-02
2.209590e-02
2.226260e-02
2.259370e-02
2.000700e-02
2.167870e-02
2.298830e-02
2.393560e-02
2.452060e-02
2.065740e-02
2.209990e-02
2.322420e-02
2.403020e-02
2.451790e-02
2.130530e-02
2.251960e-02
2.346150e-02
2.413100e-02
2.452800e-02
2.195070e-02
2.293760e-02
2.370000e-02
2.423780e-02
2.455110e-02
2.259370e-02
2.335410e-02
2.393980e-02
2.435080e-02
2.458710e-02
2.309330e-02
2.288430e-02
2.269160e-02
2.251520e-02
2.235510e-02
2.348320e-02
2.330060e-02
2.314060e-02
2.300320e-02
2.288840e-02
2.386930e-02
2.370740e-02
2.357550e-02
2.347360e-02
2.340180e-02
2.425160e-02
2.410460e-02
2.399620e-02
2.392640e-02
2.389540e-02
2.463000e-02
2.449210e-02
2.440270e-02
2.436170e-02
2.436920e-02
2.235510e-02
2.183230e-02
2.153390e-02
2.145990e-02
2.161030e-02
2.288840e-02
2.236240e-02
2.206490e-02
2.199600e-02
2.215560e-02
2.340180e-02
2.289480e-02
2.261260e-02
2.255520e-02
2.272260e-02
2.389540e-02
2.342950e-02
2.317680e-02
2.313740e-02
2.331120e-02
2.436920e-02
2.396650e-02
2.375770e-02
2.374270e-02
2.392150e-02
2.161030e-02
1.893770e-02
1.798510e-02
1.875270e-02
2.124030e-02
2.215560e-02
1.999260e-02
1.922590e-02
1.985550e-02
2.188140e-02
2.272260e-02
2.109990e-02
2.054080e-02
2.104510e-02
2.261300e-02
2.331120e-02
2.225970e-02
2.192990e-02
2.232170e-02
2.343510e-02
2.392150e-02
2.347200e-02
2.339320e-02
2.368510e-02
2.434780e-02
2.124030e-02
1.792920e-02
1.567170e-02
1.446780e-02
1.431760e-02
2.188140e-02
2.028490e-02
1.915020e-02
1.847710e-02
1.826560e-02
2.261300e-02
2.226570e-02
2.205420e-02
2.197850e-02
2.203860e-02
2.343510e-02
2.387140e-02
2.438380e-02
2.497220e-02
2.563660e-02
2.434780e-02
2.510220e-02
2.613890e-02
2.745800e-02
2.905940e-02
1.431760e-02
2.600970e-02
3.436670e-02
3.938850e-02
4.107510e-02
1.826560e-02
3.043570e-02
3.983030e-02
4.644950e-02
5.029320e-02
2.203860e-02
3.380440e-02
4.338760e-02
5.078810e-02
5.600600e-02
2.563660e-02
3.611590e-02
4.503850e-02
5.240430e-02
5.821340e-02
2.905940e-02
3.737010e-02
4.478300e-02
5.129820e-02
5.691560e-02
4.107510e-02
3.468150e-02
3.202660e-02
3.311050e-02
3.793330e-02
5.029320e-02
4.655590e-02
4.454850e-02
4.427100e-02
4.572340e-02
5.600600e-02
5.430640e-02
5.285570e-02
5.165380e-02
5.070080e-02
5.821340e-02
5.793290e-02
5.694800e-02
5.525890e-02
5.286550e-02
5.691560e-02
5.743540e-02
5.682560e-02
5.508630e-02
5.221750e-02
3.793330e-02
3.374090e-02
2.948160e-02
2.515520e-02
2.076170e-02
4.572340e-02
3.944680e-02
3.376890e-02
2.868980e-02
2.420940e-02
5.070080e-02
4.332100e-02
3.694340e-02
3.156790e-02
2.719460e-02
5.286550e-02
4.536370e-02
3.900510e-02
3.378950e-02
2.971710e-02
5.221750e-02
4.557480e-02
3.995390e-02
3.535460e-02
3.177710e-02
2.076170e-02
2.243180e-02
2.323760e-02
2.317890e-02
2.225580e-02
2.420940e-02
2.495700e-02
2.510480e-02
2.465280e-02
2.360110e-02
2.719460e-02
2.714410e-02
2.672800e-02
2.594640e-02
2.479920e-02
2.971710e-02
2.899310e-02
2.810730e-02
2.705970e-02
2.585020e-02
3.177710e-02
3.050410e-02
2.924270e-02
2.799270e-02
2.675420e-02
2.225580e-02
2.209370e-02
2.209590e-02
2.226260e-02
2.259370e-02
2.360110e-02
2.328470e-02
2.311910e-02
2.310420e-02
2.324000e-02
2.479920e-02
2.436290e-02
2.406020e-02
2.389090e-02
2.385520e-02
2.585020e-02
2.532830e-02
2.491910e-02
2.462280e-02
2.443930e-02
2.675420e-02
2.618080e-02
2.569610e-02
2.529990e-02
2.499240e-02
2.259370e-02
2.335410e-02
2.393980e-02
2.435080e-02
2.458710e-02
2.324000e-02
2.380920e-02
2.424110e-02
2.453580e-02
2.469330e-02
2.385520e-02
2.424740e-02
2.453680e-02
2.472340e-02
2.480710e-02
2.443930e-02
2.466880e-02
2.482680e-02
2.491340e-02
2.492850e-02
2.499240e-02
2.507340e-02
2.511120e-02
2.510590e-02
2.505750e-02
2.463000e-02
2.449210e-02
2.440270e-02
2.436170e-02
2.436920e-02
2.499690e-02
2.488560e-02
2.482130e-02
2.480400e-02
2.483370e-02
2.534870e-02
2.526740e-02
2.522980e-02
2.523590e-02
2.528570e-02
2.568540e-02
2.563760e-02
2.562830e-02
2.565740e-02
2.572500e-02
2.600690e-02
2.599620e-02
2.601670e-02
2.606860e-02
2.615180e-02
2.436920e-02
2.396650e-02
2.375770e-02
2.374270e-02
2.392150e-02
2.483370e-02
2.451290e-02
2.436260e-02
2.438260e-02
2.457310e-02
2.528570e-02
2.504350e-02
2.494980e-02
2.500430e-02
2.520730e-02
2.572500e-02
2.555830e-02
2.551920e-02
2.560780e-02
2.582400e-02
2.615180e-02
2.605720e-02
2.607090e-02
2.619300e-02
2.642330e-02
2.392150e-02
2.347200e-02
2.339320e-02
2.368510e-02
2.434780e-02
2.457310e-02
2.440320e-02
2.452250e-02
2.493110e-02
2.562870e-02
2.520730e-02
2.523190e-02
2.549800e-02
2.600560e-02
2.675470e-02
2.582400e-02
2.595790e-02
2.631940e-02
2.690870e-02
2.772570e-02
2.642330e-02
2.658120e-02
2.698690e-02
2.764040e-02
2.854170e-02
2.434780e-02
2.510220e-02
2.613890e-02
2.745800e-02
2.905940e-02
2.562870e-02
2.650660e-02
2.778120e-02
2.945250e-02
3.152070e-02
2.675470e-02
2.780380e-02
2.925730e-02
3.111520e-02
3.337750e-02
2.772570e-02
2.899380e-02
3.056720e-02
3.244590e-02
3.463000e-02
2.854170e-02
3.007660e-02
3.171100e-02
3.344480e-02
3.527810e-02
2.905940e-02
3.737010e-02
4.478300e-02
5.129820e-02
5.691560e-02
3.152070e-02
3.873790e-02
4.513830e-02
5.072170e-02
5.548830e-02
3.337750e-02
3.948000e-02
4.486830e-02
4.954220e-02
5.350180e-02
3.463000e-02
3.959650e-02
4.397300e-02
4.775950e-02
5.095600e-02
3.527810e-02
3.908720e-02
4.245240e-02
4.537370e-02
4.785100e-02
5.691560e-02
5.743540e-02
5.682560e-02
5.508630e-02
5.221750e-02
5.548830e-02
5.588290e-02
5.523240e-02
5.353690e-02
5.079620e-02
5.350180e-02
5.378660e-02
5.315190e-02
5.159770e-02
4.912390e-02
5.095600e-02
5.114640e-02
5.058400e-02
4.926870e-02
4.720060e-02
4.785100e-02
4.796240e-02
4.752870e-02
4.655010e-02
4.502630e-02
5.221750e-02
4.557480e-02
3.995390e-02
3.535460e-02
3.177710e-02
5.079620e-02
4.506870e-02
4.019490e-02
3.617460e-02
3.300790e-02
4.912390e-02
4.435810e-02
4.024690e-02
3.679000e-02
3.398770e-02
4.720060e-02
4.344310e-02
4.010990e-02
3.720100e-02
3.471640e-02
4.502630e-02
4.232350e-02
3.978390e-02
3.740730e-02
3.519390e-02
3.177710e-02
3.050410e-02
2.924270e-02
2.799270e-02
2.675420e-02
3.300790e-02
3.153860e-02
3.014450e-02
2.882570e-02
2.758220e-02
3.398770e-02
3.235770e-02
3.086320e-02
2.950430e-02
2.828090e-02
3.471640e-02
3.296150e-02
3.139880e-02
3.002850e-02
2.885030e-02
3.519390e-02
3.335000e-02
3.175140e-02
3.039820e-02
2.929040e-02
2.675420e-02
2.618080e-02
2.569610e-02
2.529990e-02
2.499240e-02
2.758220e-02
2.694450e-02
2.638830e-02
2.591360e-02
2.552040e-02
2.828090e-02
2.759620e-02
2.698650e-02
2.645180e-02
2.599210e-02
2.885030e-02
2.813600e-02
2.749070e-02
2.691450e-02
2.640740e-02
2.929040e-02
2.856380e-02
2.790090e-02
2.730180e-02
2.676640e-02
2.499240e-02
2.507340e-02
2.511120e-02
2.510590e-02
2.505750e-02
2.552040e-02
2.546670e-02
2.539610e-02
2.530870e-02
2.520430e-02
2.599210e-02
2.582340e-02
2.566000e-02
2.550210e-02
2.534960e-02
2.640740e-02
2.614340e-02
2.590300e-02
2.568640e-02
2.549350e-02
2.676640e-02
2.642670e-02
2.612500e-02
2.586140e-02
2.563580e-02
2.600690e-02
2.599620e-02
2.601670e-02
2.606860e-02
2.615180e-02
2.630990e-02
2.633390e-02
2.638350e-02
2.645880e-02
2.655970e-02
2.659390e-02
2.665040e-02
2.672720e-02
2.682410e-02
2.694130e-02
2.685910e-02
2.694580e-02
2.704760e-02
2.716450e-02
2.729640e-02
2.710540e-02
2.722000e-02
2.734480e-02
2.747990e-02
2.762520e-02
2.615180e-02
2.605720e-02
2.607090e-02
2.619300e-02
2.642330e-02
2.655970e-02
2.651140e-02
2.656330e-02
2.671560e-02
2.696820e-02
2.694130e-02
2.693170e-02
2.701520e-02
2.719160e-02
2.746110e-02
2.729640e-02
2.731830e-02
2.742650e-02
2.762100e-02
2.790190e-02
2.762520e-02
2.767100e-02
2.779720e-02
2.800380e-02
2.829070e-02
2.642330e-02
2.658120e-02
2.698690e-02
2.764040e-02
2.854170e-02
2.696820e-02
2.719620e-02
2.763730e-02
2.829150e-02
2.915870e-02
2.746110e-02
2.775380e-02
2.822240e-02
2.886670e-02
2.968680e-02
2.790190e-02
2.825400e-02
2.874200e-02
2.936600e-02
3.012600e-02
2.829070e-02
2.869680e-02
2.919640e-02
2.978950e-02
3.047630e-02
2.854170e-02
3.007660e-02
3.171100e-02
3.344480e-02
3.527810e-02
2.915870e-02
3.067640e-02
3.224460e-02
3.386330e-02
3.553250e-02
2.968680e-02
3.112280e-02
3.258310e-02
3.406770e-02
3.557660e-02
3.012600e-02
3.141580e-02
3.272650e-02
3.405810e-02
3.541050e-02
3.047630e-02
3.155560e-02
3.267500e-02
3.383450e-02
3.503410e-02
3.527810e-02
3.908720e-02
4.245240e-02
4.537370e-02
4.785100e-02
3.553250e-02
3.856670e-02
4.122060e-02
4.349430e-02
4.538770e-02
3.557660e-02
3.799310e-02
4.008430e-02
4.185040e-02
4.329120e-02
3.541050e-02
3.736640e-02
3.904350e-02
4.044190e-02
4.156160e-02
3.503410e-02
3.668660e-02
3.809820e-02
3.926890e-02
4.019870e-02
4.785100e-02
4.796240e-02
4.752870e-02
4.655010e-02
4.502630e-02
4.538770e-02
4.553780e-02
4.524990e-02
4.452410e-02
4.336030e-02
4.329120e-02
4.347980e-02
4.330980e-02
4.278120e-02
4.189390e-02
4.156160e-02
4.178870e-02
4.170860e-02
4.132140e-02
4.062700e-02
4.019870e-02
4.046420e-02
4.044620e-02
4.014470e-02
3.955970e-02
4.502630e-02
4.232350e-02
3.978390e-02
3.740730e-02
3.519390e-02
4.336030e-02
4.111720e-02
3.899260e-02
3.698640e-02
3.509860e-02
4.189390e-02
4.004200e-02
3.827120e-02
3.658160e-02
3.497300e-02
4.062700e-02
3.909780e-02
3.761980e-02
3.619290e-02
3.481720e-02
3.955970e-02
3.828470e-02
3.703830e-02
3.582050e-02
3.463120e-02
3.519390e-02
3.335000e-02
3.175140e-02
3.039820e-02
2.929040e-02
3.509860e-02
3.344600e-02
3.199150e-02
3.073500e-02
2.967650e-02
3.497300e-02
3.349020e-02
3.216560e-02
3.099920e-02
2.999110e-02
3.481720e-02
3.348250e-02
3.227380e-02
3.119090e-02
3.023400e-02
3.463120e-02
3.342300e-02
3.231600e-02
3.131010e-02
3.040530e-02
2.929040e-02
2.856380e-02
2.790090e-02
2.730180e-02
2.676640e-02
2.967650e-02
2.893100e-02
2.825130e-02
2.763760e-02
2.708970e-02
2.999110e-02
2.923380e-02
2.854460e-02
2.792350e-02
2.737040e-02
3.023400e-02
2.947230e-02
2.878080e-02
2.815960e-02
2.760870e-02
3.040530e-02
2.964630e-02
2.895980e-02
2.834580e-02
2.780440e-02
2.676640e-02
2.642670e-02
2.612500e-02
2.586140e-02
2.563580e-02
2.708970e-02
2.670170e-02
2.635700e-02
2.605550e-02
2.579730e-02
2.737040e-02
2.694490e-02
2.656610e-02
2.623400e-02
2.594860e-02
2.760870e-02
2.715630e-02
2.675230e-02
2.639690e-02
2.608990e-02
2.780440e-02
2.733570e-02
2.691560e-02
2.654400e-02
2.622100e-02
2.710540e-02
2.722000e-02
2.734480e-02
2.747990e-02
2.762520e-02
2.733260e-02
2.746380e-02
2.760420e-02
2.775370e-02
2.791250e-02
2.754220e-02
2.768750e-02
2.784080e-02
2.800190e-02
2.817100e-02
2.773410e-02
2.789110e-02
2.805450e-02
2.822440e-02
2.840090e-02
2.790840e-02
2.807450e-02