<?xml version="1.0"?>
<VTKFile type="UnstructuredGrid" version="0.1" byte_order="LittleEndian" compressor="vtkZLibDataCompressor">
<UnstructuredGrid>
<Piece NumberOfPoints="2500" NumberOfCells="1600">
<Points>
<DataArray type="Float32" NumberOfComponents="3" format="ascii">
-3.630000e+00 0.000000e+00 0.000000e+00
-3.448500e+00 0.000000e+00 0.000000e+00
-3.267000e+00 0.000000e+00 0.000000e+00
-3.085500e+00 0.000000e+00 0.000000e+00
-2.904000e+00 0.000000e+00 0.000000e+00
-3.630000e+00 1.282500e-01 0.000000e+00
-3.448500e+00 1.282500e-01 0.000000e+00
-3.267000e+00 1.282500e-01 0.000000e+00
-3.085500e+00 1.282500e-01 0.000000e+00
-2.904000e+00 1.282500e-01 0.000000e+00
-3.630000e+00 2.565000e-01 0.000000e+00
-3.448500e+00 2.565000e-01 0.000000e+00
-3.267000e+00 2.565000e-01 0.000000e+00
-3.085500e+00 2.565000e-01 0.000000e+00
-2.904000e+00 2.565000e-01 0.000000e+00
-3.630000e+00 3.847500e-01 0.000000e+00
-3.448500e+00 3.847500e-01 0.000000e+00
-3.267000e+00 3.847500e-01 0.000000e+00
-3.085500e+00 3.847500e-01 0.000000e+00
-2.904000e+00 3.847500e-01 0.000000e+00
-3.630000e+00 5.130000e-01 0.000000e+00
-3.448500e+00 5.130000e-01 0.000000e+00
-3.267000e+00 5.130000e-01 0.000000e+00
-3.085500e+00 5.130000e-01 0.000000e+00
-2.904000e+00 5.130000e-01 0.000000e+00
-2.904000e+00 0.000000e+00 0.000000e+00
-2.722500e+00 0.000000e+00 0.000000e+00
-2.541000e+00 0.000000e+00 0.000000e+00
-2.359500e+00 0.000000e+00 0.000000e+00
-2.178000e+00 0.000000e+00 0.000000e+00
-2.904000e+00 1.282500e-01 0.000000e+00
-2.722500e+00 1.282500e-01 0.000000e+00
-2.541000e+00 1.282500e-01 0.000000e+00
-2.359500e+00 1.282500e-01 0.000000e+00
-2.178000e+00 1.282500e-01 0.000000e+00
-2.904000e+00 2.565000e-01 0.000000e+00
-2.722500e+00 2.565000e-01 0.000000e+00
-2.541000e+00 2.565000e-01 0.000000e+00
-2.359500e+00 2.565000e-01 0.000000e+00
-2.178000e+00 2.565000e-01 0.000000e+00
-2.904000e+00 3.847500e-01 0.000000e+00
-2.722500e+00 3.847500e-01 0.000000e+00
-2.541000e+00 3.847500e-01 0.000000e+00
-2.359500e+00 3.847500e-01 0.000000e+00
-2.178000e+00 3.847500e-01 0.000000e+00
-2.904000e+00 5.130000e-01 0.000000e+00
-2.722500e+00 5.130000e-01 0.000000e+00
-2.541000e+00 5.130000e-01 0.000000e+00
-2.359500e+00 5.130000e-01 0.000000e+00
-2.178000e+00 5.130000e-01 0.000000e+00
-2.178000e+00 0.000000e+00 0.000000e+00
-1.996500e+00 0.000000e+00 0.000000e+00
-1.815000e+00 0.000000e+00 0.000000e+00
-1.633500e+00 0.000000e+00 0.000000e+00
-1.452000e+00 0.000000e+00 0.000000e+00
-2.178000e+00 1.282500e-01 0.000000e+00
-1.996500e+00 1.282500e-01 0.000000e+00
-1.815000e+00 1.282500e-01 0.000000e+00
-1.633500e+00 1.282500e-01 0.000000e+00
-1.452000e+00 1.282500e-01 0.000000e+00
-2.178000e+00 2.565000e-01 0.000000e+00
-1.996500e+00 2.565000e-01 0.000000e+00
-1.815000e+00 2.565000e-01 0.000000e+00
-1.633500e+00 2.565000e-01 0.000000e+00
-1.452000e+00 2.565000e-01 0.000000e+00
-2.178000e+00 3.847500e-01 0.000000e+00
-1.996500e+00 3.847500e-01 0.000000e+00
-1.815000e+00 3.847500e-01 0.000000e+00
-1.633500e+00 3.847500e-01 0.000000e+00
-1.452000e+00 3.847500e-01 0.000000e+00
-2.178000e+00 5.130000e-01 0.000000e+00
-1.996500e+00 5.130000e-01 0.000000e+00
-1.815000e+00 5.130000e-01 0.000000e+00
-1.633500e+00 5.130000e-01 0.000000e+00
-1.452000e+00 5.130000e-01 0.000000e+00
-1.452000e+00 0.000000e+00 0.000000e+00
-1.270500e+00 0.000000e+00 0.000000e+00
-1.089000e+00 0.000000e+00 0.000000e+00
-9.075000e-01 0.000000e+00 0.000000e+00
-7.260000e-01 0.000000e+00 0.000000e+00
-1.452000e+00 1.282500e-01 0.000000e+00
-1.270500e+00 1.282500e-01 0.000000e+00
-1.089000e+00 1.282500e-01 0.000000e+00
-9.075000e-01 1.282500e-01 0.000000e+00
-7.260000e-01 1.282500e-01 0.000000e+00
-1.452000e+00 2.565000e-01 0.000000e+00
-1.270500e+00 2.565000e-01 0.000000e+00
-1.089000e+00 2.565000e-01 0.000000e+00
-9.075000e-01 2.565000e-01 0.000000e+00
-7.260000e-01 2.565000e-01 0.000000e+00
-1.452000e+00 3.847500e-01 0.000000e+00
-1.270500e+00 3.847500e-01 0.000000e+00
-1.089000e+00 3.847500e-01 0.000000e+00
-9.075000e-01 3.847500e-01 0.000000e+00
-7.260000e-01 3.847500e-01 0.000000e+00
-1.452000e+00 5.130000e-01 0.000000e+00
-1.270500e+00 5.130000e-01 0.000000e+00
-1.089000e+00 5.130000e-01 0.000000e+00
-9.075000e-01 5.130000e-01 0.000000e+00
-7.260000e-01 5.130000e-01 0.000000e+00
-7.260000e-01 0.000000e+00 0.000000e+00
-5.445000e-01 0.000000e+00 0.000000e+00
-3.630000e-01 0.000000e+00 0.000000e+00
-1.815000e-01 0.000000e+00 0.000000e+00
0.000000e+00 0.000000e+00 0.000000e+00
-7.260000e-01 1.282500e-01 0.000000e+00
-5.445000e-01 1.282500e-01 0.000000e+00
-3.630000e-01 1.282500e-01 0.000000e+00
-1.815000e-01 1.282500e-01 0.000000e+00
0.000000e+00 1.282500e-01 0.000000e+00
-7.260000e-01 2.565000e-01 0.000000e+00
-5.445000e-01 2.565000e-01 0.000000e+00
-3.630000e-01 2.565000e-01 0.000000e+00
-1.815000e-01 2.565000e-01 0.000000e+00
0.000000e+00 2.565000e-01 0.000000e+00
-7.260000e-01 3.847500e-01 0.000000e+00
-5.445000e-01 3.847500e-01 0.000000e+00
-3.630000e-01 3.847500e-01 0.000000e+00
-1.815000e-01 3.847500e-01 0.000000e+00
0.000000e+00 3.847500e-01 0.000000e+00
-7.260000e-01 5.130000e-01 0.000000e+00
-5.445000e-01 5.130000e-01 0.000000e+00
-3.630000e-01 5.130000e-01 0.000000e+00
-1.815000e-01 5.130000e-01 0.000000e+00
0.000000e+00 5.130000e-01 0.000000e+00
0.000000e+00 0.000000e+00 0.000000e+00
1.815000e-01 0.000000e+00 0.000000e+00
3.630000e-01 0.000000e+00 0.000000e+00
5.445000e-01 0.000000e+00 0.000000e+00
7.260000e-01 0.000000e+00 0.000000e+00
0.000000e+00 1.282500e-01 0.000000e+00
1.815000e-01 1.282500e-01 0.000000e+00
3.630000e-01 1.282500e-01 0.000000e+00
5.445000e-01 1.282500e-01 0.000000e+00
7.260000e-01 1.282500e-01 0.000000e+00
0.000000e+00 2.565000e-01 0.000000e+00
1.815000e-01 2.565000e-01 0.000000e+00
3.630000e-01 2.565000e-01 0.000000e+00
5.445000e-01 2.565000e-01 0.000000e+00
7.260000e-01 2.565000e-01 0.000000e+00
0.000000e+00 3.847500e-01 0.000000e+00
1.815000e-01 3.847500e-01 0.000000e+00
3.630000e-01 3.847500e-01 0.000000e+00
5.445000e-01 3.847500e-01 0.000000e+00
7.260000e-01 3.847500e-01 0.000000e+00
0.000000e+00 5.130000e-01 0.000000e+00
1.815000e-01 5.130000e-01 0.000000e+00
3.630000e-01 5.130000e-01 0.000000e+00
5.445000e-01 5.130000e-01 0.000000e+00
7.260000e-01 5.130000e-01 0.000000e+00
7.260000e-01 0.000000e+00 0.000000e+00
9.075000e-01 0.000000e+00 0.000000e+00
1.089000e+00 0.000000e+00 0.000000e+00
1.270500e+00 0.000000e+00 0.000000e+00
1.452000e+00 0.000000e+00 0.000000e+00
7.260000e-01 1.282500e-01 0.000000e+00
9.075000e-01 1.282500e-01 0.000000e+00
1.089000e+00 1.282500e-01 0.000000e+00
1.270500e+00 1.282500e-01 0.000000e+00
1.452000e+00 1.282500e-01 0.000000e+00
7.260000e-01 2.565000e-01 0.000000e+00
9.075000e-01 2.565000e-01 0.000000e+00
1.089000e+00 2.565000e-01 0.000000e+00
1.270500e+00 2.565000e-01 0.000000e+00
1.452000e+00 2.565000e-01 0.000000e+00
7.260000e-01 3.847500e-01 0.000000e+00
9.075000e-01 3.847500e-01 0.000000e+00
1.089000e+00 3.847500e-01 0.000000e+00
1.270500e+00 3.847500e-01 0.000000e+00
1.452000e+00 3.847500e-01 0.000000e+00
7.260000e-01 5.130000e-01 0.000000e+00
9.075000e-01 5.130000e-01 0.000000e+00
1.089000e+00 5.130000e-01 0.000000e+00
1.270500e+00 5.130000e-01 0.000000e+00
1.452000e+00 5.130000e-01 0.000000e+00
1.452000e+00 0.000000e+00 0.000000e+00
1.633500e+00 0.000000e+00 0.000000e+00
1.815000e+00 0.000000e+00 0.000000e+00
1.996500e+00 0.000000e+00 0.000000e+00
2.178000e+00 0.000000e+00 0.000000e+00
1.452000e+00 1.282500e-01 0.000000e+00
1.633500e+00 1.282500e-01 0.000000e+00
1.815000e+00 1.282500e-01 0.000000e+00
1.996500e+00 1.282500e-01 0.000000e+00
2.178000e+00 1.282500e-01 0.000000e+00
1.452000e+00 2.565000e-01 0.000000e+00
1.633500e+00 2.565000e-01 0.000000e+00
1.815000e+00 2.565000e-01 0.000000e+00
1.996500e+00 2.565000e-01 0.000000e+00
2.178000e+00 2.565000e-01 0.000000e+00
1.452000e+00 3.847500e-01 0.000000e+00
1.633500e+00 3.847500e-01 0.000000e+00
1.815000e+00 3.847500e-01 0.000000e+00
1.996500e+00 3.847500e-01 0.000000e+00
2.178000e+00 3.847500e-01 0.000000e+00
1.452000e+00 5.130000e-01 0.000000e+00
1.633500e+00 5.130000e-01 0.000000e+00
1.815000e+00 5.130000e-01 0.000000e+00
1.996500e+00 5.130000e-01 0.000000e+00
2.178000e+00 5.130000e-01 0.000000e+00
2.178000e+00 0.000000e+00 0.000000e+00
2.359500e+00 0.000000e+00 0.000000e+00
2.541000e+00 0.000000e+00 0.000000e+00
2.722500e+00 0.000000e+00 0.000000e+00
2.904000e+00 0.000000e+00 0.000000e+00
2.178000e+00 1.282500e-01 0.000000e+00
2.359500e+00 1.282500e-01 0.000000e+00
2.541000e+00 1.282500e-01 0.000000e+00
2.722500e+00 1.282500e-01 0.000000e+00
2.904000e+00 1.282500e-01 0.000000e+00
2.178000e+00 2.565000e-01 0.000000e+00
2.359500e+00 2.565000e-01 0.000000e+00
2.541000e+00 2.565000e-01 0.000000e+00
2.722500e+00 2.565000e-01 0.000000e+00
2.904000e+00 2.565000e-01 0.000000e+00
2.178000e+00 3.847500e-01 0.000000e+00
2.359500e+00 3.847500e-01 0.000000e+00
2.541000e+00 3.847500e-01 0.000000e+00
2.722500e+00 3.847500e-01 0.000000e+00
2.904000e+00 3.847500e-01 0.000000e+00
2.178000e+00 5.130000e-01 0.000000e+00
2.359500e+00 5.130000e-01 0.000000e+00
2.541000e+00 5.130000e-01 0.000000e+00
2.722500e+00 5.130000e-01 0.000000e+00
2.904000e+00 5.130000e-01 0.000000e+00
2.904000e+00 0.000000e+00 0.000000e+00
3.085500e+00 0.000000e+00 0.000000e+00
3.267000e+00 0.000000e+00 0.000000e+00
3.448500e+00 0.000000e+00 0.000000e+00
3.630000e+00 0.000000e+00 0.000000e+00
2.904000e+00 1.282500e-01 0.000000e+00
3.085500e+00 1.282500e-01 0.000000e+00
3.267000e+00 1.282500e-01 0.000000e+00
3.448500e+00 1.282500e-01 0.000000e+00
3.630000e+00 1.282500e-01 0.000000e+00
2.904000e+00 2.565000e-01 0.000000e+00
3.085500e+00 2.565000e-01 0.000000e+00
3.267000e+00 2.565000e-01 0.000000e+00
3.448500e+00 2.565000e-01 0.000000e+00
3.630000e+00 2.565000e-01 0.000000e+00
2.904000e+00 3.847500e-01 0.000000e+00
3.085500e+00 3.847500e-01 0.000000e+00
3.267000e+00 3.847500e-01 0.000000e+00
3.448500e+00 3.847500e-01 0.000000e+00
3.630000e+00 3.847500e-01 0.000000e+00
2.904000e+00 5.130000e-01 0.000000e+00
[...]
<PointData>
<DataArray type="Float32" Name="V1" format="ascii">
0.000000e+00
0.000000e+00
0.000000e+00
0.000000e+00
0.000000e+00
1.264110e-02
1.104250e-02
9.680430e-03
8.554790e-03
7.665620e-03
2.028400e-02
1.823810e-02
1.643600e-02
1.487760e-02
1.356300e-02
2.292870e-02
2.158670e-02
2.026670e-02
1.896840e-02
1.769210e-02
2.057510e-02
2.108840e-02
2.117250e-02
2.082730e-02
2.005290e-02
0.000000e+00
0.000000e+00
0.000000e+00
0.000000e+00
0.000000e+00
7.665620e-03
6.667570e-03
5.939360e-03
5.480970e-03
5.292430e-03
1.356300e-02
1.207610e-02
1.094980e-02
1.018390e-02
9.778600e-03
1.769210e-02
1.622570e-02
1.503130e-02
1.410890e-02
1.345850e-02
2.005290e-02
1.911620e-02
1.818390e-02
1.725590e-02
1.633220e-02
0.000000e+00
0.000000e+00
0.000000e+00
0.000000e+00
0.000000e+00
5.292430e-03
5.204620e-03
5.115810e-03
5.025970e-03
4.935120e-03
9.778600e-03
9.567350e-03
9.326280e-03
9.055390e-03
8.754690e-03
1.345850e-02
1.308820e-02
1.263140e-02
1.208830e-02
1.145870e-02
1.633220e-02
1.576710e-02
1.503120e-02
1.412460e-02
1.304720e-02
0.000000e+00
0.000000e+00
0.000000e+00
0.000000e+00
0.000000e+00
4.935120e-03
3.650660e-03
3.658260e-03
4.957940e-03
7.549690e-03
8.754690e-03
6.352030e-03
6.105880e-03
8.016240e-03
1.208310e-02
1.145870e-02
8.104140e-03
7.342860e-03
9.174880e-03
1.360020e-02
1.304720e-02
8.906970e-03
7.369190e-03
8.433870e-03
1.210100e-02
0.000000e+00
0.000000e+00
0.000000e+00
0.000000e+00
0.000000e+00
7.549690e-03
4.580870e-03
-9.915730e-04
-9.167620e-03
-1.994730e-02
1.208310e-02
5.379250e-03
-4.616830e-03
-1.790520e-02
-3.448570e-02
1.360020e-02
2.395160e-03
-1.087580e-02
-2.621260e-02
-4.361540e-02
1.210100e-02
-4.371410e-03
-1.976840e-02
-3.409000e-02
-4.733620e-02
0.000000e+00
0.000000e+00
0.000000e+00
0.000000e+00
0.000000e+00
-1.994730e-02
-1.968680e-02
-1.947870e-02
-1.932310e-02
-1.921990e-02
-3.448570e-02
-3.287790e-02
-3.166230e-02
-3.083890e-02
-3.040770e-02
-4.361540e-02
-3.957350e-02
-3.655090e-02
-3.454750e-02
-3.356340e-02
-4.733620e-02
-3.977350e-02
-3.414440e-02
-3.044890e-02
-2.868690e-02
0.000000e+00
0.000000e+00
0.000000e+00
0.000000e+00
0.000000e+00
-1.921990e-02
-1.755810e-02
-1.494620e-02
-1.138420e-02
-6.872110e-03
-3.040770e-02
-2.761590e-02
-2.338090e-02
-1.770260e-02
-1.058120e-02
-3.356340e-02
-3.017330e-02
-2.530400e-02
-1.895520e-02
-1.112710e-02
-2.868690e-02
-2.523050e-02
-2.071550e-02
-1.514200e-02
-8.510050e-03
0.000000e+00
0.000000e+00
0.000000e+00
0.000000e+00
0.000000e+00
-6.872110e-03
-3.510490e-03
-7.790230e-04
1.322300e-03
2.793480e-03
-1.058120e-02
-5.152530e-03
-7.263480e-04
2.697390e-03
5.118690e-03
-1.112710e-02
-4.926110e-03
1.580270e-04
4.125270e-03
6.975630e-03
-8.510050e-03
-2.831230e-03
1.874100e-03
5.605950e-03
8.364310e-03
0.000000e+00
0.000000e+00
0.000000e+00
0.000000e+00
0.000000e+00
2.793480e-03
4.471530e-03
5.796360e-03
6.767970e-03
7.386350e-03
5.118690e-03
7.872470e-03
1.006250e-02
1.168890e-02
1.275160e-02
6.975630e-03
1.020280e-02
1.279850e-02
1.476280e-02
1.609570e-02
8.364310e-03
1.146250e-02
1.400430e-02
1.598970e-02
1.741860e-02
0.000000e+00
0.000000e+00
0.000000e+00
0.000000e+00
0.000000e+00
7.386350e-03
7.959270e-03
8.562780e-03
9.196900e-03
9.861620e-03
1.275160e-02
1.380460e-02
1.486140e-02
1.592190e-02
1.698600e-02
1.609570e-02
1.753610e-02
1.889590e-02
2.017490e-02
2.137310e-02
1.741860e-02
1.915380e-02
2.066620e-02
2.195600e-02
2.302300e-02
2.057510e-02
2.108840e-02
2.117250e-02
2.082730e-02
2.005290e-02
2.078850e-02
2.097420e-02
2.100710e-02
2.088700e-02
2.061400e-02
2.103660e-02
2.096010e-02
2.091510e-02
2.090150e-02
2.091940e-02
2.131930e-02
2.104610e-02
2.089660e-02
2.087090e-02
2.096890e-02
2.163650e-02
2.123200e-02
2.095160e-02
2.079510e-02
2.076270e-02
2.005290e-02
1.911620e-02
1.818390e-02
1.725590e-02
1.633220e-02
2.061400e-02
2.011940e-02
1.953050e-02
1.884710e-02
1.806940e-02
2.091940e-02
2.072570e-02
2.039630e-02
1.993110e-02
1.933010e-02
2.096890e-02
2.093510e-02
2.078130e-02
2.050770e-02
2.011420e-02
2.076270e-02
2.074750e-02
2.068560e-02
2.057700e-02
2.042180e-02
1.633220e-02
1.576710e-02
1.503120e-02
1.412460e-02
1.304720e-02
1.806940e-02
1.728490e-02
1.634250e-02
1.524210e-02
1.398390e-02
1.933010e-02
1.831690e-02
1.724600e-02
1.611750e-02
1.493120e-02
2.011420e-02
1.886310e-02
1.774190e-02
1.675050e-02
1.588910e-02
2.042180e-02
1.892340e-02
1.783000e-02
1.714140e-02
1.685770e-02
1.304720e-02
8.906970e-03
7.369190e-03
8.433870e-03
1.210100e-02
1.398390e-02
9.628860e-03
7.505930e-03
7.615070e-03
9.956290e-03
1.493120e-02
1.034460e-02
7.760890e-03
7.179980e-03
8.601890e-03
1.588910e-02
1.105430e-02
8.134080e-03
7.128600e-03
8.037820e-03
1.685770e-02
1.175780e-02
8.625500e-03
7.460940e-03
8.264080e-03
1.210100e-02
-4.371410e-03
-1.976840e-02
-3.409000e-02
-4.733620e-02
9.956290e-03
-8.471530e-03
-2.417360e-02
-3.714990e-02
-4.740050e-02
8.601890e-03
-9.870910e-03
-2.473980e-02
-3.600470e-02
-4.366560e-02
8.037820e-03
-8.569570e-03
-2.146690e-02
-3.065430e-02
-3.613160e-02
8.264080e-03
-4.567490e-03
-1.435510e-02
-2.109870e-02
-2.479830e-02
-4.733620e-02
-3.977350e-02
-3.414440e-02
-3.044890e-02
-2.868690e-02
-4.740050e-02
-3.924710e-02
-3.257940e-02
-2.739750e-02
-2.370140e-02
-4.366560e-02
-3.579020e-02
-2.878590e-02
-2.265280e-02
-1.739100e-02
-3.613160e-02
-2.940280e-02
-2.276390e-02
-1.621490e-02
-9.755660e-03
-2.479830e-02
-2.008500e-02
-1.451350e-02
-8.083600e-03
-7.954600e-04
-2.868690e-02
-2.523050e-02
-2.071550e-02
-1.514200e-02
-8.510050e-03
-2.370140e-02
-2.222500e-02
-1.897970e-02
-1.396540e-02
-7.182220e-03
-1.739100e-02
-1.730470e-02
-1.518960e-02
-1.104580e-02
-4.873130e-03
-9.755660e-03
-1.046950e-02
-9.345360e-03
-6.383100e-03
-1.582770e-03
-7.954600e-04
-1.719590e-03
-1.446910e-03
2.256370e-05
2.688850e-03
-8.510050e-03
-2.831230e-03
1.874100e-03
5.605950e-03
8.364310e-03
-7.182220e-03
-1.109160e-03
3.733660e-03
7.346250e-03
9.728600e-03
-4.873130e-03
1.262550e-03
5.998270e-03
9.334010e-03
1.126980e-02
-1.582770e-03
4.283910e-03
8.667910e-03
1.156920e-02
1.298790e-02
2.688850e-03
7.954910e-03
1.174260e-02
1.405190e-02
1.488280e-02
8.364310e-03
1.146250e-02
1.400430e-02
1.598970e-02
1.741860e-02
9.728600e-03
1.259460e-02
1.495170e-02
1.679970e-02
1.813870e-02
1.126980e-02
1.379300e-02
1.588080e-02
1.753310e-02
1.874990e-02
1.298790e-02
1.505760e-02
1.679160e-02
1.818990e-02
1.925230e-02
1.488280e-02
1.638850e-02
1.768430e-02
1.877010e-02
1.964590e-02
1.741860e-02
1.915380e-02
2.066620e-02
2.195600e-02
2.302300e-02
1.813870e-02
1.995200e-02
2.150780e-02
2.280620e-02
2.384720e-02
1.874990e-02
2.058190e-02
2.212390e-02
2.337590e-02
2.433780e-02
1.925230e-02
2.104370e-02
2.251460e-02
2.366500e-02
2.449490e-02
1.964590e-02
2.133720e-02
2.267980e-02
2.367360e-02
2.431850e-02
2.163650e-02
2.123200e-02
2.095160e-02
2.079510e-02
2.076270e-02
2.197900e-02
2.158820e-02
2.130020e-02
2.111500e-02
2.103250e-02
2.233590e-02
2.198360e-02
2.170920e-02
2.151270e-02
2.139400e-02
2.270730e-02
2.241840e-02
2.217870e-02
2.198830e-02
2.184710e-02
2.309330e-02
2.289250e-02
2.270860e-02
2.254180e-02
2.239190e-02
2.076270e-02
2.074750e-02
2.068560e-02
2.057700e-02
2.042180e-02
2.103250e-02
2.087770e-02
2.076730e-02
2.070120e-02
2.067940e-02
2.139400e-02
2.112200e-02
2.096440e-02
2.092120e-02
2.099250e-02
2.184710e-02
2.148020e-02
2.127680e-02
2.123710e-02
2.136100e-02
2.239190e-02
2.195240e-02
2.170470e-02
2.164890e-02
2.178500e-02
2.042180e-02
1.892340e-02
1.783000e-02
1.714140e-02
1.685770e-02
2.067940e-02
1.888800e-02
1.784330e-02
1.754520e-02
1.799370e-02
2.099250e-02
1.900010e-02
1.801940e-02
1.805060e-02
1.909350e-02
2.136100e-02
1.925950e-02
1.835840e-02
1.865770e-02
2.015720e-02
2.178500e-02
1.966650e-02
1.886030e-02
1.936640e-02
2.118480e-02
1.685770e-02
1.175780e-02
8.625500e-03
7.460940e-03
8.264080e-03
1.799370e-02
1.290830e-02
9.866720e-03
8.869030e-03
9.915220e-03
1.909350e-02
1.437100e-02
1.160440e-02
1.079360e-02
1.193860e-02
2.015720e-02
1.614610e-02
1.383850e-02
1.323450e-02
1.433410e-02
2.118480e-02
1.823340e-02
1.656900e-02
1.619190e-02
1.710190e-02
8.264080e-03
-4.567490e-03
-1.435510e-02
-2.109870e-02
-2.479830e-02
9.915220e-03
3.584240e-03
-1.751340e-03
-6.091520e-03
-9.436290e-03
1.193860e-02
1.139840e-02
1.006190e-02
7.929040e-03
4.999880e-03
1.433410e-02
1.887490e-02
2.108450e-02
2.096300e-02
1.851020e-02
1.710190e-02
2.601390e-02
3.131670e-02
3.301020e-02
3.109450e-02
-2.479830e-02
-2.008500e-02
-1.451350e-02
-8.083600e-03
-7.954600e-04
-9.436290e-03
-8.959380e-03
-6.161860e-03
-1.043720e-03
6.395040e-03
4.999880e-03
2.487260e-03
3.322670e-03
7.506100e-03
1.503760e-02
1.851020e-02
1.425490e-02
1.394010e-02
1.756590e-02
2.513210e-02
3.109450e-02
2.634350e-02
2.569050e-02
2.913560e-02
3.667870e-02
-7.954600e-04
-1.719590e-03
-1.446910e-03
2.256370e-05
2.688850e-03
6.395040e-03
5.604080e-03
5.415620e-03
5.829680e-03
6.846240e-03
1.503760e-02
1.380050e-02
1.271980e-02
1.179540e-02
1.102740e-02
2.513210e-02
2.286960e-02
2.046550e-02
1.791970e-02
1.523230e-02
3.667870e-02
3.281150e-02
2.865280e-02
2.420260e-02
1.946100e-02
2.688850e-03
7.954910e-03
1.174260e-02
1.405190e-02
1.488280e-02
6.846240e-03
1.156920e-02
1.483180e-02
1.663420e-02
1.697620e-02
1.102740e-02
1.509990e-02
1.778220e-02
1.907430e-02
1.897640e-02
1.523230e-02
1.854700e-02
2.059370e-02
2.137240e-02
2.088330e-02
1.946100e-02
2.191050e-02
2.326630e-02
2.352840e-02
2.269690e-02
1.488280e-02
1.638850e-02
1.768430e-02
1.877010e-02
1.964590e-02
1.697620e-02
1.786210e-02
1.869900e-02
1.948690e-02
2.022580e-02
1.897640e-02
1.930660e-02
1.972590e-02
2.023430e-02
2.083170e-02
2.088330e-02
2.072210e-02
2.076510e-02
2.101230e-02
2.146380e-02
2.269690e-02
2.210840e-02
2.181640e-02
2.182090e-02
2.212180e-02
1.964590e-02
2.133720e-02
2.267980e-02
2.367360e-02
2.431850e-02
2.022580e-02
2.178810e-02
2.299380e-02
2.384300e-02
2.433550e-02
2.083170e-02
2.224760e-02
2.330750e-02
2.401150e-02
2.435960e-02
2.146380e-02
2.271580e-02
2.362100e-02
2.417930e-02
2.439090e-02
2.212180e-02
2.319260e-02
2.393410e-02
2.434630e-02
2.442920e-02
2.309330e-02
2.289250e-02
2.270860e-02
2.254180e-02
2.239190e-02
2.348320e-02
2.331170e-02
2.316020e-02
2.302890e-02
2.291760e-02
2.386930e-02
2.372010e-02
2.359610e-02
2.349740e-02
2.342400e-02
2.425160e-02
2.411760e-02
2.401620e-02
2.394730e-02
2.391110e-02
2.463000e-02
2.450420e-02
2.442040e-02
2.437870e-02
2.437900e-02
2.239190e-02
2.195240e-02
2.170470e-02
2.164890e-02
2.178500e-02
2.291760e-02
2.246920e-02
2.221460e-02
2.215370e-02
2.228660e-02
2.342400e-02
2.298560e-02
2.273730e-02
2.267900e-02
2.281090e-02
2.391110e-02
2.350160e-02
2.327280e-02
2.322490e-02
2.335770e-02
2.437900e-02
2.401710e-02
2.382120e-02
2.379120e-02
2.392720e-02
2.178500e-02
1.966650e-02
1.886030e-02
1.936640e-02
2.118480e-02
2.228660e-02
2.050090e-02
1.982530e-02
2.025970e-02
2.180430e-02
2.281090e-02
2.140370e-02
2.088030e-02
2.124050e-02
2.248450e-02
2.335770e-02
2.237500e-02
2.202530e-02
2.230880e-02
2.322540e-02
2.392720e-02
2.341460e-02
2.326040e-02
2.346460e-02
2.402720e-02
2.118480e-02
1.823340e-02
1.656900e-02
1.619190e-02
1.710190e-02
2.180430e-02
2.005320e-02
1.914580e-02
1.908200e-02
1.986190e-02
2.248450e-02
2.163910e-02
2.134290e-02
2.159600e-02
2.239830e-02
2.322540e-02
2.299090e-02
2.316040e-02
2.373380e-02
2.471110e-02
2.402720e-02
2.410880e-02
2.459820e-02
2.549530e-02
2.680020e-02
1.710190e-02
2.601390e-02
3.131670e-02
3.301020e-02
3.109450e-02
1.986190e-02
3.029220e-02
3.761830e-02
4.184030e-02
4.295810e-02
2.239830e-02
3.318850e-02
4.151520e-02
4.737830e-02
5.077790e-02
2.471110e-02
3.470280e-02
4.300720e-02
4.962430e-02
5.455390e-02
2.680020e-02
3.483520e-02
4.209450e-02
4.857820e-02
5.428630e-02
3.109450e-02
2.634350e-02
2.569050e-02
2.913560e-02
3.667870e-02
4.295810e-02
4.043490e-02
4.016350e-02
4.214390e-02
4.637620e-02
5.077790e-02
5.014200e-02
5.025620e-02
5.112050e-02
5.273480e-02
5.455390e-02
5.546490e-02
5.596860e-02
5.606510e-02
5.575440e-02
5.428630e-02
5.640350e-02
5.730080e-02
5.697790e-02
5.543500e-02
3.667870e-02
3.281150e-02
2.865280e-02
2.420260e-02
1.946100e-02
4.637620e-02
3.996850e-02
3.397450e-02
2.839410e-02
2.322740e-02
5.273480e-02
4.483130e-02
3.782720e-02
3.172260e-02
2.651740e-02
5.575440e-02
4.739970e-02
4.021090e-02
3.418800e-02
2.933100e-02
5.543500e-02
4.767390e-02
4.112570e-02
3.579050e-02
3.166810e-02
1.946100e-02
2.191050e-02
2.326630e-02
2.352840e-02
2.269690e-02
2.322740e-02
2.467550e-02
2.530510e-02
2.511630e-02
2.410910e-02
2.651740e-02
2.709290e-02
2.709040e-02
2.650990e-02
2.535140e-02
2.933100e-02
2.916270e-02
2.862210e-02
2.770910e-02
2.642370e-02
3.166810e-02
3.088490e-02
2.990020e-02
2.871400e-02
2.732630e-02
2.269690e-02
2.210840e-02
2.181640e-02
2.182090e-02
2.212180e-02
2.410910e-02
2.337530e-02
2.292580e-02
2.276060e-02
2.287950e-02
2.535140e-02
2.451490e-02
2.394480e-02
2.364110e-02
2.360370e-02
2.642370e-02
2.552710e-02
2.487330e-02
2.446240e-02
2.429440e-02
2.732630e-02
2.641190e-02
2.571130e-02
2.522460e-02
2.495160e-02
2.212180e-02
2.319260e-02
2.393410e-02
2.434630e-02
2.442920e-02
2.287950e-02
2.368890e-02
2.424090e-02
2.453530e-02
2.457240e-02
2.360370e-02
2.416710e-02
2.454160e-02
2.472710e-02
2.472360e-02
2.429440e-02
2.462730e-02
2.483630e-02
2.492160e-02
2.488290e-02
2.495160e-02
2.506940e-02
2.512510e-02
2.511870e-02
2.505030e-02
2.463000e-02
2.450420e-02
2.442040e-02
2.437870e-02
2.437900e-02
2.499690e-02
2.489630e-02
2.483560e-02
2.481510e-02
2.483450e-02
2.534870e-02
2.527660e-02
2.524090e-02
2.524170e-02
2.527900e-02
2.568540e-02
2.564510e-02
2.563620e-02
2.565860e-02
2.571230e-02
2.600690e-02
2.600190e-02
2.602150e-02
2.606580e-02
2.613460e-02
2.437900e-02
2.401710e-02
2.382120e-02
2.379120e-02
2.392720e-02
2.483450e-02
2.454030e-02
2.439020e-02
2.438440e-02
2.452270e-02
2.527900e-02
2.505000e-02
2.494570e-02
2.496620e-02
2.511140e-02
2.571230e-02
2.554640e-02
2.548780e-02
2.553670e-02
2.569310e-02
2.613460e-02
2.602930e-02
2.601640e-02
2.609600e-02
2.626790e-02
2.392720e-02
2.341460e-02
2.326040e-02
2.346460e-02
2.402720e-02
2.452270e-02
2.425830e-02
2.427250e-02
2.456520e-02
2.513640e-02
2.511140e-02
2.502360e-02
2.516650e-02
2.553990e-02
2.614390e-02
2.569310e-02
2.571050e-02
2.594240e-02
2.638870e-02
2.704940e-02
2.626790e-02
2.631900e-02
2.660020e-02
2.711160e-02
2.785310e-02
2.402720e-02
2.410880e-02
2.459820e-02
2.549530e-02
2.680020e-02
2.513640e-02
2.546590e-02
2.621280e-02
2.737710e-02
2.895880e-02
2.614390e-02
2.674390e-02
2.771730e-02
2.906400e-02
3.078410e-02
2.704940e-02
2.794280e-02
2.911170e-02
3.055610e-02
3.227600e-02
2.785310e-02
2.906250e-02
3.039590e-02
3.185330e-02
3.343460e-02
2.680020e-02
3.483520e-02
4.209450e-02
4.857820e-02
5.428630e-02
2.895880e-02
3.583390e-02
4.210720e-02
4.777880e-02
5.284860e-02
3.078410e-02
3.656160e-02
4.187970e-02
4.673840e-02
5.113780e-02
3.227600e-02
3.701820e-02
4.141190e-02
4.545710e-02
4.915380e-02
3.343460e-02
3.720380e-02
4.070390e-02
4.393480e-02
4.689660e-02
5.428630e-02
5.640350e-02
5.730080e-02
5.697790e-02
5.543500e-02
5.284860e-02
5.494510e-02
5.579820e-02
5.540800e-02
5.377460e-02
5.113780e-02
5.304790e-02
5.378420e-02
5.334660e-02
5.173520e-02
4.915380e-02
5.071220e-02
5.125880e-02
5.079370e-02
4.931670e-02
4.689660e-02
4.793790e-02
4.822210e-02
4.774910e-02
4.651910e-02
5.543500e-02
4.767390e-02
4.112570e-02
3.579050e-02
3.166810e-02
5.377460e-02
4.718040e-02
4.156970e-02
3.694270e-02
3.329930e-02
5.173520e-02
4.635350e-02
4.170070e-02
3.777680e-02
3.458160e-02
4.931670e-02
4.519350e-02
4.151880e-02
3.829270e-02
3.551530e-02
4.651910e-02
4.370010e-02
4.102390e-02
3.849060e-02
3.610010e-02
3.166810e-02
3.088490e-02
2.990020e-02
2.871400e-02
2.732630e-02
3.329930e-02
3.207940e-02
3.080250e-02
2.946880e-02
2.807820e-02
3.458160e-02
3.300420e-02
3.149970e-02
3.006800e-02
2.870910e-02
3.551530e-02
3.365960e-02
3.199160e-02
3.051140e-02
2.921900e-02
3.610010e-02
3.404530e-02
3.227830e-02
3.079920e-02
2.960790e-02
2.732630e-02
2.641190e-02
2.571130e-02
2.522460e-02
2.495160e-02
2.807820e-02
2.719620e-02
2.648280e-02
2.593810e-02
2.556200e-02
2.870910e-02
2.786690e-02
2.715200e-02
2.656430e-02
2.610370e-02
2.921900e-02
2.842410e-02
2.771880e-02
2.710300e-02
2.657680e-02
2.960790e-02
2.886770e-02
2.818320e-02
2.755430e-02
2.698110e-02
2.495160e-02
2.506940e-02
2.512510e-02
2.511870e-02
2.505030e-02
2.556200e-02
2.550310e-02
2.542740e-02
2.533480e-02
2.522540e-02
2.610370e-02
2.589460e-02
2.570730e-02
2.554180e-02
2.539800e-02
2.657680e-02
2.624380e-02
2.596470e-02
2.573950e-02
2.556820e-02
2.698110e-02
2.655070e-02
2.619980e-02
2.592810e-02
2.573590e-02
2.600690e-02
2.600190e-02
2.602150e-02
2.606580e-02
2.613460e-02
2.630990e-02
2.633820e-02
2.638610e-02
2.645350e-02
2.654030e-02
2.659390e-02
2.665360e-02
2.672790e-02
2.681680e-02
2.692020e-02
2.685910e-02
2.694810e-02
2.704700e-02
2.715570e-02
2.727430e-02
2.710540e-02
2.722180e-02
2.734340e-02
2.747030e-02
2.760240e-02
2.613460e-02
2.602930e-02
2.601640e-02
2.609600e-02
2.626790e-02
2.654030e-02
2.647540e-02
2.649720e-02
2.660550e-02
2.680040e-02
2.692020e-02
2.689040e-02
2.694120e-02
2.707290e-02
2.728530e-02
2.727430e-02
2.727410e-02
2.734870e-02
2.749810e-02
2.772240e-02
2.760240e-02
2.762660e-02
2.771950e-02
2.788130e-02
2.811180e-02
2.626790e-02
2.631900e-02
2.660020e-02
2.711160e-02
2.785310e-02
2.680040e-02
2.692250e-02
2.724480e-02
2.776730e-02
2.849010e-02
2.728530e-02
2.747540e-02
2.783260e-02
2.835700e-02
2.904860e-02
2.772240e-02
2.797760e-02
2.836360e-02
2.888060e-02
2.952840e-02
2.811180e-02
2.842910e-02
2.883790e-02
2.933810e-02
2.992970e-02
2.785310e-02
2.906250e-02
3.039590e-02
3.185330e-02
3.343460e-02
2.849010e-02
2.974330e-02
3.108430e-02
3.251340e-02
3.403030e-02
2.904860e-02
3.027260e-02
3.156460e-02
3.292450e-02
3.435230e-02
2.952840e-02
3.065060e-02
3.183670e-02
3.308670e-02
3.440060e-02
2.992970e-02
3.087720e-02
3.190060e-02
3.299990e-02
3.417500e-02
3.343460e-02
3.720380e-02
4.070390e-02
4.393480e-02
4.689660e-02
3.403030e-02
3.709290e-02
3.990010e-02
4.245190e-02
4.474830e-02
3.435230e-02
3.683490e-02
3.907950e-02
4.108610e-02
4.285480e-02
3.440060e-02
3.642960e-02
3.824190e-02
3.983740e-02
4.121620e-02
3.417500e-02
3.587710e-02
3.738740e-02
3.870580e-02
3.983230e-02
4.689660e-02
4.793790e-02
4.822210e-02
4.774910e-02
4.651910e-02
4.474830e-02
4.556470e-02
4.580080e-02
4.545630e-02
4.453140e-02
4.285480e-02
4.352290e-02
4.373910e-02
4.350370e-02
4.281650e-02
4.121620e-02
4.181220e-02
4.203720e-02
4.189120e-02
4.137420e-02
3.983230e-02
4.043270e-02
4.069490e-02
4.061890e-02
4.020470e-02
4.651910e-02
4.370010e-02
4.102390e-02
3.849060e-02
3.610010e-02
4.453140e-02
4.225820e-02
4.007050e-02
3.796830e-02
3.595160e-02
4.281650e-02
4.098820e-02
3.920280e-02
3.746000e-02
3.576010e-02
4.137420e-02
3.989020e-02
3.842070e-02
3.696590e-02
3.552570e-02
4.020470e-02
3.896400e-02
3.772440e-02
3.648590e-02
3.524840e-02
3.610010e-02
3.404530e-02
3.227830e-02
3.079920e-02
2.960790e-02
3.595160e-02
3.411920e-02
3.251850e-02
3.114970e-02
3.001260e-02
3.576010e-02
3.413210e-02
3.268670e-02
3.142390e-02
3.034370e-02
3.552570e-02
3.408410e-02
3.278280e-02
3.162170e-02
3.060100e-02
3.524840e-02
3.397520e-02
3.280680e-02
3.174330e-02
3.078470e-02
2.960790e-02
2.886770e-02
2.818320e-02
2.755430e-02
2.698110e-02
3.001260e-02
2.924670e-02
2.854130e-02
2.789620e-02
2.731150e-02
3.034370e-02
2.955790e-02
2.883800e-02
2.818390e-02
2.759570e-02
3.060100e-02
2.980110e-02
2.907320e-02
2.841740e-02
2.783370e-02
3.078470e-02
2.997640e-02
2.924710e-02
2.859680e-02
2.802550e-02
2.698110e-02
2.655070e-02
2.619980e-02
2.592810e-02
2.573590e-02
2.731150e-02
2.684950e-02
2.646150e-02
2.614750e-02
2.590750e-02
2.759570e-02
2.711310e-02
2.669760e-02
2.634920e-02
2.606780e-02
2.783370e-02
2.734160e-02
2.690810e-02
2.653310e-02
2.621660e-02
2.802550e-02
2.753500e-02
2.709300e-02
2.669930e-02
2.635400e-02
2.710540e-02
2.722180e-02
2.734340e-02
2.747030e-02
2.760240e-02
2.733260e-02
2.746510e-02
2.760210e-02
2.774370e-02
2.788970e-02
2.754220e-02
2.768840e-02
2.783820e-02
2.799150e-02
2.814840e-02
2.773410e-02
2.789160e-02
2.805150e-02
2.821380e-02
2.837850e-02
2.790840e-02