<?xml version="1.0"?>
<VTKFile type="UnstructuredGrid" version="0.1" byte_order="LittleEndian" compressor="vtkZLibDataCompressor">
<UnstructuredGrid>
<Piece NumberOfPoints="2500" NumberOfCells="1600">
<Points>
<DataArray type="Float32" NumberOfComponents="3" format="ascii">
-3.630000e+00 0.000000e+00 0.000000e+00
-3.448500e+00 0.000000e+00 0.000000e+00
-3.267000e+00 0.000000e+00 0.000000e+00
-3.085500e+00 0.000000e+00 0.000000e+00
-2.904000e+00 0.000000e+00 0.000000e+00
-3.630000e+00 1.282500e-01 0.000000e+00
-3.448500e+00 1.282500e-01 0.000000e+00
-3.267000e+00 1.282500e-01 0.000000e+00
-3.085500e+00 1.282500e-01 0.000000e+00
-2.904000e+00 1.282500e-01 0.000000e+00
-3.630000e+00 2.565000e-01 0.000000e+00
-3.448500e+00 2.565000e-01 0.000000e+00
-3.267000e+00 2.565000e-01 0.000000e+00
-3.085500e+00 2.565000e-01 0.000000e+00
-2.904000e+00 2.565000e-01 0.000000e+00
-3.630000e+00 3.847500e-01 0.000000e+00
-3.448500e+00 3.847500e-01 0.000000e+00
-3.267000e+00 3.847500e-01 0.000000e+00
-3.085500e+00 3.847500e-01 0.000000e+00
-2.904000e+00 3.847500e-01 0.000000e+00
-3.630000e+00 5.130000e-01 0.000000e+00
-3.448500e+00 5.130000e-01 0.000000e+00
-3.267000e+00 5.130000e-01 0.000000e+00
-3.085500e+00 5.130000e-01 0.000000e+00
-2.904000e+00 5.130000e-01 0.000000e+00
-2.904000e+00 0.000000e+00 0.000000e+00
-2.722500e+00 0.000000e+00 0.000000e+00
-2.541000e+00 0.000000e+00 0.000000e+00
-2.359500e+00 0.000000e+00 0.000000e+00
-2.178000e+00 0.000000e+00 0.000000e+00
-2.904000e+00 1.282500e-01 0.000000e+00
-2.722500e+00 1.282500e-01 0.000000e+00
-2.541000e+00 1.282500e-01 0.000000e+00
-2.359500e+00 1.282500e-01 0.000000e+00
-2.178000e+00 1.282500e-01 0.000000e+00
-2.904000e+00 2.565000e-01 0.000000e+00
-2.722500e+00 2.565000e-01 0.000000e+00
-2.541000e+00 2.565000e-01 0.000000e+00
-2.359500e+00 2.565000e-01 0.000000e+00
-2.178000e+00 2.565000e-01 0.000000e+00
-2.904000e+00 3.847500e-01 0.000000e+00
-2.722500e+00 3.847500e-01 0.000000e+00
-2.541000e+00 3.847500e-01 0.000000e+00
-2.359500e+00 3.847500e-01 0.000000e+00
-2.178000e+00 3.847500e-01 0.000000e+00
-2.904000e+00 5.130000e-01 0.000000e+00
-2.722500e+00 5.130000e-01 0.000000e+00
-2.541000e+00 5.130000e-01 0.000000e+00
-2.359500e+00 5.130000e-01 0.000000e+00
-2.178000e+00 5.130000e-01 0.000000e+00
-2.178000e+00 0.000000e+00 0.000000e+00
-1.996500e+00 0.000000e+00 0.000000e+00
-1.815000e+00 0.000000e+00 0.000000e+00
-1.633500e+00 0.000000e+00 0.000000e+00
-1.452000e+00 0.000000e+00 0.000000e+00
-2.178000e+00 1.282500e-01 0.000000e+00
-1.996500e+00 1.282500e-01 0.000000e+00
-1.815000e+00 1.282500e-01 0.000000e+00
-1.633500e+00 1.282500e-01 0.000000e+00
-1.452000e+00 1.282500e-01 0.000000e+00
-2.178000e+00 2.565000e-01 0.000000e+00
-1.996500e+00 2.565000e-01 0.000000e+00
-1.815000e+00 2.565000e-01 0.000000e+00
-1.633500e+00 2.565000e-01 0.000000e+00
-1.452000e+00 2.565000e-01 0.000000e+00
-2.178000e+00 3.847500e-01 0.000000e+00
-1.996500e+00 3.847500e-01 0.000000e+00
-1.815000e+00 3.847500e-01 0.000000e+00
-1.633500e+00 3.847500e-01 0.000000e+00
-1.452000e+00 3.847500e-01 0.000000e+00
-2.178000e+00 5.130000e-01 0.000000e+00
-1.996500e+00 5.130000e-01 0.000000e+00
-1.815000e+00 5.130000e-01 0.000000e+00
-1.633500e+00 5.130000e-01 0.000000e+00
-1.452000e+00 5.130000e-01 0.000000e+00
-1.452000e+00 0.000000e+00 0.000000e+00
-1.270500e+00 0.000000e+00 0.000000e+00
-1.089000e+00 0.000000e+00 0.000000e+00
-9.075000e-01 0.000000e+00 0.000000e+00
-7.260000e-01 0.000000e+00 0.000000e+00
-1.452000e+00 1.282500e-01 0.000000e+00
-1.270500e+00 1.282500e-01 0.000000e+00
-1.089000e+00 1.282500e-01 0.000000e+00
-9.075000e-01 1.282500e-01 0.000000e+00
-7.260000e-01 1.282500e-01 0.000000e+00
-1.452000e+00 2.565000e-01 0.000000e+00
-1.270500e+00 2.565000e-01 0.000000e+00
-1.089000e+00 2.565000e-01 0.000000e+00
-9.075000e-01 2.565000e-01 0.000000e+00
-7.260000e-01 2.565000e-01 0.000000e+00
-1.452000e+00 3.847500e-01 0.000000e+00
-1.270500e+00 3.847500e-01 0.000000e+00
-1.089000e+00 3.847500e-01 0.000000e+00
-9.075000e-01 3.847500e-01 0.000000e+00
-7.260000e-01 3.847500e-01 0.000000e+00
-1.452000e+00 5.130000e-01 0.000000e+00
-1.270500e+00 5.130000e-01 0.000000e+00
-1.089000e+00 5.130000e-01 0.000000e+00
-9.075000e-01 5.130000e-01 0.000000e+00
-7.260000e-01 5.130000e-01 0.000000e+00
-7.260000e-01 0.000000e+00 0.000000e+00
-5.445000e-01 0.000000e+00 0.000000e+00
-3.630000e-01 0.000000e+00 0.000000e+00
-1.815000e-01 0.000000e+00 0.000000e+00
0.000000e+00 0.000000e+00 0.000000e+00
-7.260000e-01 1.282500e-01 0.000000e+00
-5.445000e-01 1.282500e-01 0.000000e+00
-3.630000e-01 1.282500e-01 0.000000e+00
-1.815000e-01 1.282500e-01 0.000000e+00
0.000000e+00 1.282500e-01 0.000000e+00
-7.260000e-01 2.565000e-01 0.000000e+00
-5.445000e-01 2.565000e-01 0.000000e+00
-3.630000e-01 2.565000e-01 0.000000e+00
-1.815000e-01 2.565000e-01 0.000000e+00
0.000000e+00 2.565000e-01 0.000000e+00
-7.260000e-01 3.847500e-01 0.000000e+00
-5.445000e-01 3.847500e-01 0.000000e+00
-3.630000e-01 3.847500e-01 0.000000e+00
-1.815000e-01 3.847500e-01 0.000000e+00
0.000000e+00 3.847500e-01 0.000000e+00
-7.260000e-01 5.130000e-01 0.000000e+00
-5.445000e-01 5.130000e-01 0.000000e+00
-3.630000e-01 5.130000e-01 0.000000e+00
-1.815000e-01 5.130000e-01 0.000000e+00
0.000000e+00 5.130000e-01 0.000000e+00
0.000000e+00 0.000000e+00 0.000000e+00
1.815000e-01 0.000000e+00 0.000000e+00
3.630000e-01 0.000000e+00 0.000000e+00
5.445000e-01 0.000000e+00 0.000000e+00
7.260000e-01 0.000000e+00 0.000000e+00
0.000000e+00 1.282500e-01 0.000000e+00
1.815000e-01 1.282500e-01 0.000000e+00
3.630000e-01 1.282500e-01 0.000000e+00
5.445000e-01 1.282500e-01 0.000000e+00
7.260000e-01 1.282500e-01 0.000000e+00
0.000000e+00 2.565000e-01 0.000000e+00
1.815000e-01 2.565000e-01 0.000000e+00
3.630000e-01 2.565000e-01 0.000000e+00
5.445000e-01 2.565000e-01 0.000000e+00
7.260000e-01 2.565000e-01 0.000000e+00
0.000000e+00 3.847500e-01 0.000000e+00
1.815000e-01 3.847500e-01 0.000000e+00
3.630000e-01 3.847500e-01 0.000000e+00
5.445000e-01 3.847500e-01 0.000000e+00
7.260000e-01 3.847500e-01 0.000000e+00
0.000000e+00 5.130000e-01 0.000000e+00
1.815000e-01 5.130000e-01 0.000000e+00
3.630000e-01 5.130000e-01 0.000000e+00
5.445000e-01 5.130000e-01 0.000000e+00
7.260000e-01 5.130000e-01 0.000000e+00
7.260000e-01 0.000000e+00 0.000000e+00
9.075000e-01 0.000000e+00 0.000000e+00
1.089000e+00 0.000000e+00 0.000000e+00
1.270500e+00 0.000000e+00 0.000000e+00
1.452000e+00 0.000000e+00 0.000000e+00
7.260000e-01 1.282500e-01 0.000000e+00
9.075000e-01 1.282500e-01 0.000000e+00
1.089000e+00 1.282500e-01 0.000000e+00
1.270500e+00 1.282500e-01 0.000000e+00
1.452000e+00 1.282500e-01 0.000000e+00
7.260000e-01 2.565000e-01 0.000000e+00
9.075000e-01 2.565000e-01 0.000000e+00
1.089000e+00 2.565000e-01 0.000000e+00
1.270500e+00 2.565000e-01 0.000000e+00
1.452000e+00 2.565000e-01 0.000000e+00
7.260000e-01 3.847500e-01 0.000000e+00
9.075000e-01 3.847500e-01 0.000000e+00
1.089000e+00 3.847500e-01 0.000000e+00
1.270500e+00 3.847500e-01 0.000000e+00
1.452000e+00 3.847500e-01 0.000000e+00
7.260000e-01 5.130000e-01 0.000000e+00
9.075000e-01 5.130000e-01 0.000000e+00
1.089000e+00 5.130000e-01 0.000000e+00
1.270500e+00 5.130000e-01 0.000000e+00
1.452000e+00 5.130000e-01 0.000000e+00
1.452000e+00 0.000000e+00 0.000000e+00
1.633500e+00 0.000000e+00 0.000000e+00
1.815000e+00 0.000000e+00 0.000000e+00
1.996500e+00 0.000000e+00 0.000000e+00
2.178000e+00 0.000000e+00 0.000000e+00
1.452000e+00 1.282500e-01 0.000000e+00
1.633500e+00 1.282500e-01 0.000000e+00
1.815000e+00 1.282500e-01 0.000000e+00
1.996500e+00 1.282500e-01 0.000000e+00
2.178000e+00 1.282500e-01 0.000000e+00
1.452000e+00 2.565000e-01 0.000000e+00
1.633500e+00 2.565000e-01 0.000000e+00
1.815000e+00 2.565000e-01 0.000000e+00
1.996500e+00 2.565000e-01 0.000000e+00
2.178000e+00 2.565000e-01 0.000000e+00
1.452000e+00 3.847500e-01 0.000000e+00
1.633500e+00 3.847500e-01 0.000000e+00
1.815000e+00 3.847500e-01 0.000000e+00
1.996500e+00 3.847500e-01 0.000000e+00
2.178000e+00 3.847500e-01 0.000000e+00
1.452000e+00 5.130000e-01 0.000000e+00
1.633500e+00 5.130000e-01 0.000000e+00
1.815000e+00 5.130000e-01 0.000000e+00
1.996500e+00 5.130000e-01 0.000000e+00
2.178000e+00 5.130000e-01 0.000000e+00
2.178000e+00 0.000000e+00 0.000000e+00
2.359500e+00 0.000000e+00 0.000000e+00
2.541000e+00 0.000000e+00 0.000000e+00
2.722500e+00 0.000000e+00 0.000000e+00
2.904000e+00 0.000000e+00 0.000000e+00
2.178000e+00 1.282500e-01 0.000000e+00
2.359500e+00 1.282500e-01 0.000000e+00
2.541000e+00 1.282500e-01 0.000000e+00
2.722500e+00 1.282500e-01 0.000000e+00
2.904000e+00 1.282500e-01 0.000000e+00
2.178000e+00 2.565000e-01 0.000000e+00
2.359500e+00 2.565000e-01 0.000000e+00
2.541000e+00 2.565000e-01 0.000000e+00
2.722500e+00 2.565000e-01 0.000000e+00
2.904000e+00 2.565000e-01 0.000000e+00
2.178000e+00 3.847500e-01 0.000000e+00
2.359500e+00 3.847500e-01 0.000000e+00
2.541000e+00 3.847500e-01 0.000000e+00
2.722500e+00 3.847500e-01 0.000000e+00
2.904000e+00 3.847500e-01 0.000000e+00
2.178000e+00 5.130000e-01 0.000000e+00
2.359500e+00 5.130000e-01 0.000000e+00
2.541000e+00 5.130000e-01 0.000000e+00
2.722500e+00 5.130000e-01 0.000000e+00
2.904000e+00 5.130000e-01 0.000000e+00
2.904000e+00 0.000000e+00 0.000000e+00
3.085500e+00 0.000000e+00 0.000000e+00
3.267000e+00 0.000000e+00 0.000000e+00
3.448500e+00 0.000000e+00 0.000000e+00
3.630000e+00 0.000000e+00 0.000000e+00
2.904000e+00 1.282500e-01 0.000000e+00
3.085500e+00 1.282500e-01 0.000000e+00
3.267000e+00 1.282500e-01 0.000000e+00
3.448500e+00 1.282500e-01 0.000000e+00
3.630000e+00 1.282500e-01 0.000000e+00
2.904000e+00 2.565000e-01 0.000000e+00
3.085500e+00 2.565000e-01 0.000000e+00
3.267000e+00 2.565000e-01 0.000000e+00
3.448500e+00 2.565000e-01 0.000000e+00
3.630000e+00 2.565000e-01 0.000000e+00
2.904000e+00 3.847500e-01 0.000000e+00
3.085500e+00 3.847500e-01 0.000000e+00
3.267000e+00 3.847500e-01 0.000000e+00
3.448500e+00 3.847500e-01 0.000000e+00
3.630000e+00 3.847500e-01 0.000000e+00
2.904000e+00 5.130000e-01 0.000000e+00
[...]
<PointData>
<DataArray type="Float32" Name="V1" format="ascii">
2.018460e-02
1.940280e-02
1.843860e-02
1.729210e-02
1.596310e-02
2.021030e-02
1.943880e-02
1.849010e-02
1.736420e-02
1.606130e-02
2.028400e-02
1.952480e-02
1.860170e-02
1.751470e-02
1.626380e-02
2.040560e-02
1.966100e-02
1.877360e-02
1.774350e-02
1.657060e-02
2.057510e-02
1.984720e-02
1.900570e-02
1.805050e-02
1.698170e-02
1.596310e-02
1.496290e-02
1.316270e-02
1.056230e-02
7.161950e-03
1.606130e-02
1.499680e-02
1.321670e-02
1.072110e-02
7.509930e-03
1.626380e-02
1.512290e-02
1.338940e-02
1.106340e-02
8.144690e-03
1.657060e-02
1.534120e-02
1.368070e-02
1.158910e-02
9.066240e-03
1.698170e-02
1.565180e-02
1.409060e-02
1.229820e-02
1.027460e-02
7.161950e-03
1.528130e-03
-1.562950e-03
-2.111280e-03
-1.168690e-04
7.509930e-03
1.988080e-03
-1.061740e-03
-1.639540e-03
2.546690e-04
8.144690e-03
2.751880e-03
-2.058440e-04
-7.284820e-04
1.183970e-03
9.066240e-03
3.819510e-03
1.004730e-03
6.219050e-04
2.671030e-03
1.027460e-02
5.190980e-03
2.569990e-03
2.411610e-03
4.715850e-03
-1.168690e-04
-1.619820e-02
-3.078350e-02
-4.387270e-02
-5.546600e-02
2.546690e-04
-1.468850e-02
-2.836800e-02
-4.078390e-02
-5.193610e-02
1.183970e-03
-1.264990e-02
-2.554390e-02
-3.749810e-02
-4.851240e-02
2.671030e-03
-1.008250e-02
-2.231130e-02
-3.401540e-02
-4.519490e-02
4.715850e-03
-6.986200e-03
-1.867010e-02
-3.033580e-02
-4.198340e-02
-5.546600e-02
-6.204770e-02
-6.862490e-02
-7.519770e-02
-8.176610e-02
-5.193610e-02
-6.120820e-02
-7.048830e-02
-7.977640e-02
-8.907250e-02
-4.851240e-02
-5.976920e-02
-7.112220e-02
-8.257150e-02
-9.411710e-02
-4.519490e-02
-5.773050e-02
-7.052650e-02
-8.358290e-02
-9.689980e-02
-4.198340e-02
-5.509210e-02
-6.870120e-02
-8.281070e-02
-9.742070e-02
-8.176610e-02
-7.287130e-02
-6.294620e-02
-5.199070e-02
-4.000500e-02
-8.907250e-02
-7.939560e-02
-6.802090e-02
-5.494860e-02
-4.017850e-02
-9.411710e-02
-8.375880e-02
-7.120840e-02
-5.646590e-02
-3.953130e-02
-9.689980e-02
-8.596090e-02
-7.250850e-02
-5.654260e-02
-3.806340e-02
-9.742070e-02
-8.600180e-02
-7.192120e-02
-5.517890e-02
-3.577480e-02
-4.000500e-02
-3.223180e-02
-2.487340e-02
-1.792960e-02
-1.140040e-02
-4.017850e-02
-3.154330e-02
-2.385320e-02
-1.710840e-02
-1.130880e-02
-3.953130e-02
-2.985400e-02
-2.184040e-02
-1.549040e-02
-1.080410e-02
-3.806340e-02
-2.716410e-02
-1.883480e-02
-1.307550e-02
-9.886120e-03
-3.577480e-02
-2.347360e-02
-1.483650e-02
-9.863690e-03
-8.555010e-03
-1.140040e-02
-3.008910e-03
3.167730e-03
7.129490e-03
8.876380e-03
-1.130880e-02
-2.949450e-03
3.231500e-03
7.234010e-03
9.058110e-03
-1.080410e-02
-2.456520e-03
3.717680e-03
7.718550e-03
9.546080e-03
-9.886120e-03
-1.530120e-03
4.626280e-03
8.583090e-03
1.034030e-02
-8.555010e-03
-1.702420e-04
5.957310e-03
9.827650e-03
1.144080e-02
8.876380e-03
1.134340e-02
1.351640e-02
1.539530e-02
1.698030e-02
9.058110e-03
1.144970e-02
1.356630e-02
1.540820e-02
1.697520e-02
9.546080e-03
1.177650e-02
1.377160e-02
1.553130e-02
1.705570e-02
1.034030e-02
1.232400e-02
1.413210e-02
1.576480e-02
1.722190e-02
1.144080e-02
1.309200e-02
1.464790e-02
1.610850e-02
1.747380e-02
1.698030e-02
1.828110e-02
1.948380e-02
2.058830e-02
2.159460e-02
1.697520e-02
1.829420e-02
1.950440e-02
2.060570e-02
2.159810e-02
1.705570e-02
1.838630e-02
1.959500e-02
2.068180e-02
2.164670e-02
1.722190e-02
1.855740e-02
1.975560e-02
2.081660e-02
2.174040e-02
1.747380e-02
1.880740e-02
1.998610e-02
2.101010e-02
2.187910e-02
2.057510e-02
1.984720e-02
1.900570e-02
1.805050e-02
1.698170e-02
2.078850e-02
2.008090e-02
1.930170e-02
1.845080e-02
1.752830e-02
2.103660e-02
2.034610e-02
1.963490e-02
1.890300e-02
1.815040e-02
2.131930e-02
2.064260e-02
2.000520e-02
1.940710e-02
1.884820e-02
2.163650e-02
2.097060e-02
2.041280e-02
1.996310e-02
1.962170e-02
1.698170e-02
1.565180e-02
1.409060e-02
1.229820e-02
1.027460e-02
1.752830e-02
1.614800e-02
1.473000e-02
1.327420e-02
1.178050e-02
1.815040e-02
1.671270e-02
1.544840e-02
1.435750e-02
1.344000e-02
1.884820e-02
1.734580e-02
1.624580e-02
1.554820e-02
1.525310e-02
1.962170e-02
1.804740e-02
1.712230e-02
1.684640e-02
1.721970e-02
1.027460e-02
5.190980e-03
2.569990e-03
2.411610e-03
4.715850e-03
1.178050e-02
6.723720e-03
4.421340e-03
4.873390e-03
8.079870e-03
1.344000e-02
8.341880e-03
6.377570e-03
7.547110e-03
1.185050e-02
1.525310e-02
1.004550e-02
8.438680e-03
1.043280e-02
1.602770e-02
1.721970e-02
1.183450e-02
1.060470e-02
1.353030e-02
2.061150e-02
4.715850e-03
-6.986200e-03
-1.867010e-02
-3.033580e-02
-4.198340e-02
8.079870e-03
-3.212180e-03
-1.352840e-02
-2.286870e-02
-3.123320e-02
1.185050e-02
1.191180e-03
-7.498730e-03
-1.421930e-02
-1.897040e-02
1.602770e-02
6.223910e-03
-5.811250e-04
-4.387420e-03
-5.194970e-03
2.061150e-02
1.188600e-02
7.224420e-03
6.626770e-03
1.009300e-02
-4.198340e-02
-5.509210e-02
-6.870120e-02
-8.281070e-02
-9.742070e-02
-3.123320e-02
-4.387640e-02
-5.832420e-02
-7.457660e-02
-9.263380e-02
-1.897040e-02
-2.974900e-02
-4.258390e-02
-5.747500e-02
-7.442230e-02
-5.194970e-03
-1.271010e-02
-2.148030e-02
-3.150570e-02
-4.278610e-02
1.009300e-02
7.240410e-03
4.986470e-03
3.331220e-03
2.274670e-03
-9.742070e-02
-8.600180e-02
-7.192120e-02
-5.517890e-02
-3.577480e-02
-9.263380e-02
-7.770690e-02
-6.254330e-02
-4.714290e-02
-3.150580e-02
-7.442230e-02
-5.976010e-02
-4.633190e-02
-3.413770e-02
-2.317740e-02
-4.278610e-02
-3.216140e-02
-2.328700e-02
-1.616320e-02
-1.078980e-02
2.274670e-03
5.089290e-03
6.591260e-03
6.780590e-03
5.657280e-03
-3.577480e-02
-2.347360e-02
-1.483650e-02
-9.863690e-03
-8.555010e-03
-3.150580e-02
-1.953400e-02
-1.160450e-02
-7.717240e-03
-7.872260e-03
-2.317740e-02
-1.285260e-02
-6.573170e-03
-4.339130e-03
-6.150500e-03
-1.078980e-02
-3.429380e-03
2.574150e-04
2.706300e-04
-3.389740e-03
5.657280e-03
8.735670e-03
8.887260e-03
6.112050e-03
4.100360e-04
-8.555010e-03
-1.702420e-04
5.957310e-03
9.827650e-03
1.144080e-02
-7.872260e-03
1.508680e-03
8.074990e-03
1.182670e-02
1.276370e-02
-6.150500e-03
3.642730e-03
1.030780e-02
1.384470e-02
1.425350e-02
-3.389740e-03
6.231930e-03
1.265580e-02
1.588190e-02
1.591020e-02
4.100360e-04
9.276250e-03
1.511890e-02
1.793810e-02
1.773360e-02
1.144080e-02
1.309200e-02
1.464790e-02
1.610850e-02
1.747380e-02
1.276370e-02
1.389670e-02
1.510100e-02
1.637660e-02
1.772340e-02
1.425350e-02
1.486590e-02
1.570160e-02
1.676050e-02
1.804260e-02
1.591020e-02
1.599970e-02
1.644970e-02
1.726030e-02
1.843150e-02
1.773360e-02
1.729790e-02
1.734530e-02
1.787600e-02
1.888990e-02
1.747380e-02
1.880740e-02
1.998610e-02
2.101010e-02
2.187910e-02
1.772340e-02
1.912260e-02
2.029530e-02
2.124150e-02
2.196110e-02
1.804260e-02
1.949260e-02
2.064880e-02
2.151130e-02
2.208020e-02
1.843150e-02
1.991720e-02
2.104660e-02
2.181960e-02
2.223640e-02
1.888990e-02
2.039650e-02
2.148870e-02
2.216640e-02
2.242980e-02
2.163650e-02
2.097060e-02
2.041280e-02
1.996310e-02
1.962170e-02
2.197900e-02
2.134710e-02
2.088010e-02
2.057800e-02
2.044080e-02
2.233590e-02
2.175600e-02
2.137710e-02
2.119930e-02
2.122250e-02
2.270730e-02
2.219710e-02
2.190370e-02
2.182690e-02
2.196690e-02
2.309330e-02
2.267060e-02
2.245990e-02
2.246100e-02
2.267400e-02
1.962170e-02
1.804740e-02
1.712230e-02
1.684640e-02
1.721970e-02
2.044080e-02
1.878350e-02
1.801700e-02
1.814130e-02
1.915630e-02
2.122250e-02
1.956910e-02
1.895500e-02
1.938030e-02
2.084490e-02
2.196690e-02
2.040400e-02
1.993610e-02
2.056330e-02
2.228560e-02
2.267400e-02
2.128830e-02
2.096050e-02
2.169050e-02
2.347830e-02
1.721970e-02
1.183450e-02
1.060470e-02
1.353030e-02
2.061150e-02
1.915630e-02
1.379940e-02
1.287750e-02
1.639070e-02
2.433900e-02
2.084490e-02
1.587860e-02
1.527210e-02
1.902550e-02
2.713880e-02
2.228560e-02
1.807200e-02
1.778840e-02
2.143480e-02
2.901100e-02
2.347830e-02
2.037980e-02
2.042640e-02
2.361840e-02
2.995550e-02
2.061150e-02
1.188600e-02
7.224420e-03
6.626770e-03
1.009300e-02
2.433900e-02
1.674180e-02
1.426840e-02
1.691860e-02
2.469240e-02
2.713880e-02
2.116820e-02
2.044600e-02
2.497220e-02
3.474680e-02
2.901100e-02
2.516500e-02
2.575720e-02
3.078750e-02
4.025610e-02
2.995550e-02
2.873230e-02
3.020200e-02
3.436470e-02
4.122040e-02
1.009300e-02
7.240410e-03
4.986470e-03
3.331220e-03
2.274670e-03
2.469240e-02
2.926840e-02
3.440410e-02
4.009970e-02
4.635500e-02
3.474680e-02
4.506920e-02
5.544650e-02
6.587850e-02
7.636540e-02
4.025610e-02
5.464290e-02
6.811340e-02
8.066780e-02
9.230600e-02
4.122040e-02
5.798940e-02
7.240510e-02
8.446760e-02
9.417680e-02
2.274670e-03
5.089290e-03
6.591260e-03
6.780590e-03
5.657280e-03
4.635500e-02
3.941290e-02
3.264200e-02
2.604220e-02
1.961350e-02
7.636540e-02
6.405010e-02
5.248210e-02
4.166160e-02
3.158840e-02
9.230600e-02
7.900080e-02
6.611170e-02
5.363870e-02
4.158180e-02
9.417680e-02
8.426510e-02
7.353060e-02
6.197360e-02
4.959390e-02
5.657280e-03
8.735670e-03
8.887260e-03
6.112050e-03
4.100360e-04
1.961350e-02
1.930530e-02
1.698510e-02
1.265290e-02
6.308600e-03
3.158840e-02
2.813450e-02
2.366370e-02
1.817570e-02
1.167080e-02
4.158180e-02
3.522330e-02
2.892290e-02
2.268070e-02
1.649670e-02
4.959390e-02
4.057150e-02
3.276280e-02
2.616770e-02
2.078620e-02
4.100360e-04
9.276250e-03
1.511890e-02
1.793810e-02
1.773360e-02
6.308600e-03
1.271430e-02
1.699700e-02
1.915670e-02
1.919330e-02
1.167080e-02
1.598930e-02
1.891350e-02
2.044350e-02
2.057920e-02
1.649670e-02
1.910100e-02
2.086830e-02
2.179850e-02
2.189150e-02
2.078620e-02
2.204960e-02
2.286150e-02
2.322160e-02
2.313020e-02
1.773360e-02
1.729790e-02
1.734530e-02
1.787600e-02
1.888990e-02
1.919330e-02
1.860680e-02
1.845410e-02
1.873500e-02
1.944960e-02
2.057920e-02
1.987300e-02
1.955050e-02
1.961160e-02
2.005650e-02
2.189150e-02
2.109630e-02
2.063440e-02
2.050590e-02
2.071070e-02
2.313020e-02
2.227680e-02
2.170610e-02
2.141790e-02
2.141230e-02
1.888990e-02
2.039650e-02
2.148870e-02
2.216640e-02
2.242980e-02
1.944960e-02
2.086920e-02
2.188100e-02
2.248480e-02
2.268060e-02
2.005650e-02
2.136980e-02
2.228810e-02
2.281140e-02
2.293970e-02
2.071070e-02
2.189830e-02
2.271020e-02
2.314650e-02
2.320720e-02
2.141230e-02
2.245450e-02
2.314710e-02
2.348990e-02
2.348300e-02
2.309330e-02
2.267060e-02
2.245990e-02
2.246100e-02
2.267400e-02
2.348320e-02
2.313550e-02
2.298770e-02
2.304000e-02
2.329220e-02
2.386930e-02
2.359050e-02
2.350060e-02
2.359960e-02
2.388750e-02
2.425160e-02
2.403570e-02
2.399840e-02
2.413970e-02
2.445980e-02
2.463000e-02
2.447100e-02
2.448110e-02
2.466050e-02
2.500910e-02
2.267400e-02
2.128830e-02
2.096050e-02
2.169050e-02
2.347830e-02
2.329220e-02
2.220390e-02
2.201470e-02
2.272440e-02
2.433310e-02
2.388750e-02
2.308550e-02
2.302320e-02
2.370070e-02
2.511780e-02
2.445980e-02
2.393290e-02
2.398610e-02
2.461920e-02
2.583230e-02
2.500910e-02
2.474630e-02
2.490330e-02
2.548000e-02
2.647650e-02
2.347830e-02
2.037980e-02
2.042640e-02
2.361840e-02
2.995550e-02
2.433310e-02
2.239150e-02
2.276150e-02
2.544310e-02
3.043650e-02
2.511780e-02
2.419610e-02
2.484530e-02
2.706540e-02
3.085650e-02
2.583230e-02
2.579370e-02
2.667810e-02
2.848530e-02
3.121540e-02
2.647650e-02
2.718430e-02
2.825970e-02
2.970270e-02
3.151330e-02
2.995550e-02
2.873230e-02
3.020200e-02
3.436470e-02
4.122040e-02
3.043650e-02
3.139150e-02
3.382130e-02
3.772600e-02
4.310560e-02
3.085650e-02
3.332230e-02
3.639950e-02
4.008810e-02
4.438820e-02
3.121540e-02
3.452460e-02
3.793650e-02
4.145110e-02
4.506830e-02
3.151330e-02
3.499860e-02
3.843240e-02
4.181490e-02
4.514590e-02
4.122040e-02
5.798940e-02
7.240510e-02
8.446760e-02
9.417680e-02
4.310560e-02
5.727790e-02
6.982820e-02
8.075650e-02
9.006300e-02
4.438820e-02
5.586070e-02
6.615200e-02
7.526220e-02
8.319120e-02
4.506830e-02
5.373790e-02
6.137660e-02
6.798450e-02
7.356150e-02
4.514590e-02
5.090950e-02
5.550200e-02
5.892350e-02
6.117390e-02
9.417680e-02
8.426510e-02
7.353060e-02
6.197360e-02
4.959390e-02
9.006300e-02
8.032190e-02
7.018110e-02
5.964030e-02
4.869960e-02
8.319120e-02
7.462800e-02
6.603550e-02
5.741360e-02
4.876240e-02
7.356150e-02
6.718320e-02
6.109390e-02
5.529350e-02
4.978220e-02
6.117390e-02
5.798750e-02
5.535630e-02
5.328010e-02
5.175900e-02
4.959390e-02
4.057150e-02
3.276280e-02
2.616770e-02
2.078620e-02
4.869960e-02
4.130680e-02
3.467200e-02
2.879540e-02
2.367690e-02
4.876240e-02
4.238370e-02
3.647910e-02
3.104890e-02
2.609290e-02
4.978220e-02
4.380220e-02
3.818410e-02
3.292810e-02
2.803400e-02
5.175900e-02
4.556240e-02
3.978710e-02
3.443300e-02
2.950030e-02
2.078620e-02
2.204960e-02
2.286150e-02
2.322160e-02
2.313020e-02
2.367690e-02
2.431150e-02
2.464510e-02
2.467770e-02
2.440930e-02
2.609290e-02
2.625210e-02
2.621110e-02
2.597010e-02
2.552890e-02
2.803400e-02
2.787120e-02
2.755950e-02
2.709880e-02
2.648910e-02
2.950030e-02
2.916910e-02
2.869020e-02
2.806380e-02
2.728980e-02
2.313020e-02
2.227680e-02
2.170610e-02
2.141790e-02
2.141230e-02
2.440930e-02
2.338180e-02
2.265750e-02
2.223650e-02
2.211870e-02
2.552890e-02
2.437160e-02
2.353330e-02
2.301410e-02
2.281390e-02
2.648910e-02
2.524630e-02
2.433340e-02
2.375060e-02
2.349770e-02
2.728980e-02
2.600590e-02
2.505800e-02
2.444610e-02
2.417030e-02
2.141230e-02
2.245450e-02
2.314710e-02
2.348990e-02
2.348300e-02
2.211870e-02
2.300460e-02
2.357380e-02
2.382640e-02
2.376240e-02
2.281390e-02
2.354150e-02
2.398780e-02
2.415290e-02
2.403670e-02
2.349770e-02
2.406530e-02
2.438910e-02
2.446940e-02
2.430600e-02
2.417030e-02
2.457580e-02
2.477770e-02
2.477580e-02
2.457010e-02
2.463000e-02
2.447100e-02
2.448110e-02
2.466050e-02
2.500910e-02
2.499690e-02
2.489500e-02
2.494770e-02
2.515520e-02
2.551740e-02
2.534870e-02
2.530100e-02
2.539310e-02
2.562510e-02
2.599700e-02
2.568540e-02
2.568890e-02
2.581720e-02
2.607020e-02
2.644790e-02
2.600690e-02
2.605890e-02
2.622010e-02
2.649050e-02
2.687020e-02
2.500910e-02
2.474630e-02
2.490330e-02
2.548000e-02
2.647650e-02
2.551740e-02
2.544210e-02
2.568560e-02
2.624780e-02
2.712860e-02
2.599700e-02
2.607790e-02
2.639580e-02
2.695090e-02
2.774300e-02
2.644790e-02
2.665360e-02
2.703400e-02
2.758930e-02
2.831950e-02
2.687020e-02
2.716920e-02
2.760020e-02
2.816320e-02
2.885820e-02
2.647650e-02
2.718430e-02
2.825970e-02
2.970270e-02
3.151330e-02
2.712860e-02
2.817180e-02
2.936350e-02
3.070360e-02
3.219230e-02
2.774300e-02
2.897240e-02
3.021930e-02
3.148370e-02
3.276560e-02
2.831950e-02
2.958590e-02
3.082700e-02
3.204280e-02
3.323320e-02
2.885820e-02
3.001250e-02
3.118680e-02
3.238090e-02
3.359510e-02
3.151330e-02
3.499860e-02
3.843240e-02
4.181490e-02
4.514590e-02
3.219230e-02
3.546840e-02
3.859490e-02
4.157160e-02
4.439870e-02
3.276560e-02
3.578640e-02
3.860320e-02
4.121590e-02
4.362450e-02
3.323320e-02
3.595250e-02
3.845720e-02
4.074750e-02
4.282340e-02
3.359510e-02
3.596660e-02
3.815710e-02
4.016660e-02
4.199520e-02
4.514590e-02
5.090950e-02
5.550200e-02
5.892350e-02
6.117390e-02
4.439870e-02
4.886910e-02
5.254940e-02
5.543950e-02
5.753960e-02
4.362450e-02
4.707280e-02
4.999400e-02
5.238830e-02
5.425560e-02
4.282340e-02
4.552040e-02
4.783590e-02
4.976970e-02
5.132190e-02
4.199520e-02
4.421210e-02
4.607500e-02
4.758380e-02
4.873850e-02
6.117390e-02
5.798750e-02
5.535630e-02
5.328010e-02
5.175900e-02
5.753960e-02
5.543880e-02
5.326770e-02
5.102630e-02
4.871460e-02
5.425560e-02
5.281380e-02
5.100360e-02
4.882480e-02
4.627760e-02
5.132190e-02
5.011260e-02
4.856380e-02
4.667560e-02
4.444790e-02
4.873850e-02
4.733500e-02
4.594840e-02
4.457860e-02
4.322570e-02
5.175900e-02
4.556240e-02
3.978710e-02
3.443300e-02
2.950030e-02
4.871460e-02
4.351860e-02
3.884000e-02
3.467880e-02
3.103500e-02
4.627760e-02
4.208100e-02
3.835600e-02
3.510260e-02
3.232070e-02
4.444790e-02
4.124950e-02
3.833500e-02
3.570440e-02
3.335760e-02
4.322570e-02
4.102420e-02
3.877700e-02
3.648410e-02
3.414550e-02
2.950030e-02
2.916910e-02
2.869020e-02
2.806380e-02
2.728980e-02
3.103500e-02
3.034660e-02
2.957780e-02
2.872850e-02
2.779870e-02
3.232070e-02
3.129190e-02
3.026820e-02
2.924950e-02
2.823580e-02
3.335760e-02
3.200490e-02
3.076130e-02
2.962670e-02
2.860100e-02
3.414550e-02
3.248570e-02
3.105720e-02
2.986010e-02
2.889450e-02
2.728980e-02
2.600590e-02
2.505800e-02
2.444610e-02
2.417030e-02
2.779870e-02
2.668280e-02
2.582640e-02
2.522980e-02
2.489270e-02
2.823580e-02
2.727860e-02
2.651120e-02
2.593350e-02
2.554560e-02
2.860100e-02
2.779340e-02
2.711220e-02
2.655740e-02
2.612890e-02
2.889450e-02
2.822720e-02
2.762940e-02
2.710130e-02
2.664260e-02
2.417030e-02
2.457580e-02
2.477770e-02
2.477580e-02
2.457010e-02
2.489270e-02
2.505880e-02
2.511190e-02
2.505210e-02
2.487920e-02
2.554560e-02
2.549980e-02
2.542310e-02
2.531550e-02
2.517710e-02
2.612890e-02
2.589860e-02
2.571100e-02
2.556610e-02
2.546380e-02
2.664260e-02
2.625540e-02
2.597590e-02
2.580390e-02
2.573950e-02
2.600690e-02
2.605890e-02
2.622010e-02
2.649050e-02
2.687020e-02
2.630990e-02
2.639790e-02
2.658380e-02
2.686780e-02
2.724980e-02
2.659390e-02
2.671420e-02
2.692120e-02
2.721510e-02
2.759590e-02
2.685910e-02
2.700780e-02
2.723230e-02
2.753250e-02
2.790850e-02
2.710540e-02
2.727880e-02
2.751700e-02
2.781990e-02
2.818770e-02
2.687020e-02
2.716920e-02
2.760020e-02
2.816320e-02
2.885820e-02
2.724980e-02
2.760040e-02
2.806020e-02
2.862890e-02
2.930670e-02
2.759590e-02
2.798420e-02
2.846160e-02
2.902810e-02
2.968370e-02
2.790850e-02
2.832040e-02
2.880450e-02
2.936070e-02
2.998900e-02
2.818770e-02
2.860910e-02
2.908880e-02
2.962670e-02
3.022280e-02
2.885820e-02
3.001250e-02
3.118680e-02
3.238090e-02
3.359510e-02
2.930670e-02
3.040720e-02
3.151670e-02
3.263530e-02
3.376300e-02
2.968370e-02
3.073460e-02
3.178120e-02
3.282370e-02
3.386200e-02
2.998900e-02
3.099460e-02
3.198030e-02
3.294600e-02
3.389180e-02
3.022280e-02
3.118740e-02
3.211390e-02
3.300240e-02
3.385270e-02
3.359510e-02
3.596660e-02
3.815710e-02
4.016660e-02
4.199520e-02
3.376300e-02
3.589040e-02
3.783610e-02
3.960040e-02
4.118310e-02
3.386200e-02
3.574490e-02
3.745450e-02
3.899100e-02
4.035420e-02
3.389180e-02
3.553010e-02
3.701230e-02
3.833850e-02
3.950850e-02
3.385270e-02
3.524610e-02
3.650950e-02
3.764280e-02
3.864610e-02
4.199520e-02
4.421210e-02
4.607500e-02
4.758380e-02
4.873850e-02
4.118310e-02
4.305570e-02
4.458960e-02
4.578480e-02
4.664130e-02
4.035420e-02
4.190790e-02
4.315670e-02
4.410070e-02
4.473990e-02
3.950850e-02
4.076880e-02
4.177650e-02
4.253160e-02
4.303410e-02
3.864610e-02
3.963840e-02
4.044890e-02
4.107750e-02
4.152410e-02
4.873850e-02
4.733500e-02
4.594840e-02
4.457860e-02
4.322570e-02
4.664130e-02
4.539510e-02
4.414900e-02
4.290300e-02
4.165720e-02
4.473990e-02
4.370570e-02
4.264640e-02
4.156180e-02
4.045200e-02
4.303410e-02
4.226690e-02
4.144050e-02
4.055490e-02
3.961010e-02
4.152410e-02
4.107870e-02
4.053150e-02
3.988240e-02
3.913160e-02
4.322570e-02
4.102420e-02
3.877700e-02
3.648410e-02
3.414550e-02
4.165720e-02
3.977780e-02
3.790510e-02
3.603900e-02
3.417960e-02
4.045200e-02
3.882710e-02
3.724010e-02
3.569090e-02
3.417960e-02
3.961010e-02
3.817210e-02
3.678200e-02
3.543980e-02
3.414550e-02
3.913160e-02
3.781280e-02
3.653090e-02
3.528570e-02
3.407730e-02
3.414550e-02
3.248570e-02
3.105720e-02
2.986010e-02
2.889450e-02
3.417960e-02
3.271550e-02
3.141590e-02
3.028090e-02
2.931040e-02
3.417960e-02
3.287670e-02
3.169020e-02
3.062020e-02
2.966660e-02
3.414550e-02
3.296920e-02
3.188010e-02
3.087800e-02
2.996300e-02
3.407730e-02
3.299320e-02
3.198550e-02
3.105430e-02
3.019950e-02
2.889450e-02
2.822720e-02
2.762940e-02
2.710130e-02
2.664260e-02
2.931040e-02
2.863680e-02
2.803070e-02
2.749200e-02
2.702080e-02
2.966660e-02
2.898730e-02
2.837450e-02
2.782800e-02
2.734790e-02
2.996300e-02
2.927870e-02
2.866070e-02
2.810910e-02
2.762390e-02
3.019950e-02
2.951090e-02
2.888950e-02
2.833550e-02
2.784870e-02
2.664260e-02
2.625540e-02
2.597590e-02
2.580390e-02
2.573950e-02
2.702080e-02
2.661850e-02
2.630970e-02
2.609470e-02
2.597320e-02
2.734790e-02
2.694260e-02
2.661460e-02
2.636380e-02
2.619030e-02
2.762390e-02
2.722800e-02
2.689050e-02
2.661140e-02
2.639070e-02
2.784870e-02
2.747460e-02
2.713750e-02
2.683740e-02
2.657440e-02
2.710540e-02
2.727880e-02
2.751700e-02
2.781990e-02
2.818770e-02
2.733260e-02
2.752040e-02
2.776600e-02
2.806930e-02
2.843030e-02
2.754220e-02
2.774150e-02
2.799180e-02
2.829330e-02
2.864580e-02
2.773410e-02
2.794190e-02
2.819450e-02