<?xml version="1.0"?>
<VTKFile type="UnstructuredGrid" version="0.1" byte_order="LittleEndian" compressor="vtkZLibDataCompressor">
<UnstructuredGrid>
<Piece NumberOfPoints="2500" NumberOfCells="1600">
<Points>
<DataArray type="Float32" NumberOfComponents="3" format="ascii">
-3.630000e+00 0.000000e+00 0.000000e+00
-3.448500e+00 0.000000e+00 0.000000e+00
-3.267000e+00 0.000000e+00 0.000000e+00
-3.085500e+00 0.000000e+00 0.000000e+00
-2.904000e+00 0.000000e+00 0.000000e+00
-3.630000e+00 1.282500e-01 0.000000e+00
-3.448500e+00 1.282500e-01 0.000000e+00
-3.267000e+00 1.282500e-01 0.000000e+00
-3.085500e+00 1.282500e-01 0.000000e+00
-2.904000e+00 1.282500e-01 0.000000e+00
-3.630000e+00 2.565000e-01 0.000000e+00
-3.448500e+00 2.565000e-01 0.000000e+00
-3.267000e+00 2.565000e-01 0.000000e+00
-3.085500e+00 2.565000e-01 0.000000e+00
-2.904000e+00 2.565000e-01 0.000000e+00
-3.630000e+00 3.847500e-01 0.000000e+00
-3.448500e+00 3.847500e-01 0.000000e+00
-3.267000e+00 3.847500e-01 0.000000e+00
-3.085500e+00 3.847500e-01 0.000000e+00
-2.904000e+00 3.847500e-01 0.000000e+00
-3.630000e+00 5.130000e-01 0.000000e+00
-3.448500e+00 5.130000e-01 0.000000e+00
-3.267000e+00 5.130000e-01 0.000000e+00
-3.085500e+00 5.130000e-01 0.000000e+00
-2.904000e+00 5.130000e-01 0.000000e+00
-2.904000e+00 0.000000e+00 0.000000e+00
-2.722500e+00 0.000000e+00 0.000000e+00
-2.541000e+00 0.000000e+00 0.000000e+00
-2.359500e+00 0.000000e+00 0.000000e+00
-2.178000e+00 0.000000e+00 0.000000e+00
-2.904000e+00 1.282500e-01 0.000000e+00
-2.722500e+00 1.282500e-01 0.000000e+00
-2.541000e+00 1.282500e-01 0.000000e+00
-2.359500e+00 1.282500e-01 0.000000e+00
-2.178000e+00 1.282500e-01 0.000000e+00
-2.904000e+00 2.565000e-01 0.000000e+00
-2.722500e+00 2.565000e-01 0.000000e+00
-2.541000e+00 2.565000e-01 0.000000e+00
-2.359500e+00 2.565000e-01 0.000000e+00
-2.178000e+00 2.565000e-01 0.000000e+00
-2.904000e+00 3.847500e-01 0.000000e+00
-2.722500e+00 3.847500e-01 0.000000e+00
-2.541000e+00 3.847500e-01 0.000000e+00
-2.359500e+00 3.847500e-01 0.000000e+00
-2.178000e+00 3.847500e-01 0.000000e+00
-2.904000e+00 5.130000e-01 0.000000e+00
-2.722500e+00 5.130000e-01 0.000000e+00
-2.541000e+00 5.130000e-01 0.000000e+00
-2.359500e+00 5.130000e-01 0.000000e+00
-2.178000e+00 5.130000e-01 0.000000e+00
-2.178000e+00 0.000000e+00 0.000000e+00
-1.996500e+00 0.000000e+00 0.000000e+00
-1.815000e+00 0.000000e+00 0.000000e+00
-1.633500e+00 0.000000e+00 0.000000e+00
-1.452000e+00 0.000000e+00 0.000000e+00
-2.178000e+00 1.282500e-01 0.000000e+00
-1.996500e+00 1.282500e-01 0.000000e+00
-1.815000e+00 1.282500e-01 0.000000e+00
-1.633500e+00 1.282500e-01 0.000000e+00
-1.452000e+00 1.282500e-01 0.000000e+00
-2.178000e+00 2.565000e-01 0.000000e+00
-1.996500e+00 2.565000e-01 0.000000e+00
-1.815000e+00 2.565000e-01 0.000000e+00
-1.633500e+00 2.565000e-01 0.000000e+00
-1.452000e+00 2.565000e-01 0.000000e+00
-2.178000e+00 3.847500e-01 0.000000e+00
-1.996500e+00 3.847500e-01 0.000000e+00
-1.815000e+00 3.847500e-01 0.000000e+00
-1.633500e+00 3.847500e-01 0.000000e+00
-1.452000e+00 3.847500e-01 0.000000e+00
-2.178000e+00 5.130000e-01 0.000000e+00
-1.996500e+00 5.130000e-01 0.000000e+00
-1.815000e+00 5.130000e-01 0.000000e+00
-1.633500e+00 5.130000e-01 0.000000e+00
-1.452000e+00 5.130000e-01 0.000000e+00
-1.452000e+00 0.000000e+00 0.000000e+00
-1.270500e+00 0.000000e+00 0.000000e+00
-1.089000e+00 0.000000e+00 0.000000e+00
-9.075000e-01 0.000000e+00 0.000000e+00
-7.260000e-01 0.000000e+00 0.000000e+00
-1.452000e+00 1.282500e-01 0.000000e+00
-1.270500e+00 1.282500e-01 0.000000e+00
-1.089000e+00 1.282500e-01 0.000000e+00
-9.075000e-01 1.282500e-01 0.000000e+00
-7.260000e-01 1.282500e-01 0.000000e+00
-1.452000e+00 2.565000e-01 0.000000e+00
-1.270500e+00 2.565000e-01 0.000000e+00
-1.089000e+00 2.565000e-01 0.000000e+00
-9.075000e-01 2.565000e-01 0.000000e+00
-7.260000e-01 2.565000e-01 0.000000e+00
-1.452000e+00 3.847500e-01 0.000000e+00
-1.270500e+00 3.847500e-01 0.000000e+00
-1.089000e+00 3.847500e-01 0.000000e+00
-9.075000e-01 3.847500e-01 0.000000e+00
-7.260000e-01 3.847500e-01 0.000000e+00
-1.452000e+00 5.130000e-01 0.000000e+00
-1.270500e+00 5.130000e-01 0.000000e+00
-1.089000e+00 5.130000e-01 0.000000e+00
-9.075000e-01 5.130000e-01 0.000000e+00
-7.260000e-01 5.130000e-01 0.000000e+00
-7.260000e-01 0.000000e+00 0.000000e+00
-5.445000e-01 0.000000e+00 0.000000e+00
-3.630000e-01 0.000000e+00 0.000000e+00
-1.815000e-01 0.000000e+00 0.000000e+00
0.000000e+00 0.000000e+00 0.000000e+00
-7.260000e-01 1.282500e-01 0.000000e+00
-5.445000e-01 1.282500e-01 0.000000e+00
-3.630000e-01 1.282500e-01 0.000000e+00
-1.815000e-01 1.282500e-01 0.000000e+00
0.000000e+00 1.282500e-01 0.000000e+00
-7.260000e-01 2.565000e-01 0.000000e+00
-5.445000e-01 2.565000e-01 0.000000e+00
-3.630000e-01 2.565000e-01 0.000000e+00
-1.815000e-01 2.565000e-01 0.000000e+00
0.000000e+00 2.565000e-01 0.000000e+00
-7.260000e-01 3.847500e-01 0.000000e+00
-5.445000e-01 3.847500e-01 0.000000e+00
-3.630000e-01 3.847500e-01 0.000000e+00
-1.815000e-01 3.847500e-01 0.000000e+00
0.000000e+00 3.847500e-01 0.000000e+00
-7.260000e-01 5.130000e-01 0.000000e+00
-5.445000e-01 5.130000e-01 0.000000e+00
-3.630000e-01 5.130000e-01 0.000000e+00
-1.815000e-01 5.130000e-01 0.000000e+00
0.000000e+00 5.130000e-01 0.000000e+00
0.000000e+00 0.000000e+00 0.000000e+00
1.815000e-01 0.000000e+00 0.000000e+00
3.630000e-01 0.000000e+00 0.000000e+00
5.445000e-01 0.000000e+00 0.000000e+00
7.260000e-01 0.000000e+00 0.000000e+00
0.000000e+00 1.282500e-01 0.000000e+00
1.815000e-01 1.282500e-01 0.000000e+00
3.630000e-01 1.282500e-01 0.000000e+00
5.445000e-01 1.282500e-01 0.000000e+00
7.260000e-01 1.282500e-01 0.000000e+00
0.000000e+00 2.565000e-01 0.000000e+00
1.815000e-01 2.565000e-01 0.000000e+00
3.630000e-01 2.565000e-01 0.000000e+00
5.445000e-01 2.565000e-01 0.000000e+00
7.260000e-01 2.565000e-01 0.000000e+00
0.000000e+00 3.847500e-01 0.000000e+00
1.815000e-01 3.847500e-01 0.000000e+00
3.630000e-01 3.847500e-01 0.000000e+00
5.445000e-01 3.847500e-01 0.000000e+00
7.260000e-01 3.847500e-01 0.000000e+00
0.000000e+00 5.130000e-01 0.000000e+00
1.815000e-01 5.130000e-01 0.000000e+00
3.630000e-01 5.130000e-01 0.000000e+00
5.445000e-01 5.130000e-01 0.000000e+00
7.260000e-01 5.130000e-01 0.000000e+00
7.260000e-01 0.000000e+00 0.000000e+00
9.075000e-01 0.000000e+00 0.000000e+00
1.089000e+00 0.000000e+00 0.000000e+00
1.270500e+00 0.000000e+00 0.000000e+00
1.452000e+00 0.000000e+00 0.000000e+00
7.260000e-01 1.282500e-01 0.000000e+00
9.075000e-01 1.282500e-01 0.000000e+00
1.089000e+00 1.282500e-01 0.000000e+00
1.270500e+00 1.282500e-01 0.000000e+00
1.452000e+00 1.282500e-01 0.000000e+00
7.260000e-01 2.565000e-01 0.000000e+00
9.075000e-01 2.565000e-01 0.000000e+00
1.089000e+00 2.565000e-01 0.000000e+00
1.270500e+00 2.565000e-01 0.000000e+00
1.452000e+00 2.565000e-01 0.000000e+00
7.260000e-01 3.847500e-01 0.000000e+00
9.075000e-01 3.847500e-01 0.000000e+00
1.089000e+00 3.847500e-01 0.000000e+00
1.270500e+00 3.847500e-01 0.000000e+00
1.452000e+00 3.847500e-01 0.000000e+00
7.260000e-01 5.130000e-01 0.000000e+00
9.075000e-01 5.130000e-01 0.000000e+00
1.089000e+00 5.130000e-01 0.000000e+00
1.270500e+00 5.130000e-01 0.000000e+00
1.452000e+00 5.130000e-01 0.000000e+00
1.452000e+00 0.000000e+00 0.000000e+00
1.633500e+00 0.000000e+00 0.000000e+00
1.815000e+00 0.000000e+00 0.000000e+00
1.996500e+00 0.000000e+00 0.000000e+00
2.178000e+00 0.000000e+00 0.000000e+00
1.452000e+00 1.282500e-01 0.000000e+00
1.633500e+00 1.282500e-01 0.000000e+00
1.815000e+00 1.282500e-01 0.000000e+00
1.996500e+00 1.282500e-01 0.000000e+00
2.178000e+00 1.282500e-01 0.000000e+00
1.452000e+00 2.565000e-01 0.000000e+00
1.633500e+00 2.565000e-01 0.000000e+00
1.815000e+00 2.565000e-01 0.000000e+00
1.996500e+00 2.565000e-01 0.000000e+00
2.178000e+00 2.565000e-01 0.000000e+00
1.452000e+00 3.847500e-01 0.000000e+00
1.633500e+00 3.847500e-01 0.000000e+00
1.815000e+00 3.847500e-01 0.000000e+00
1.996500e+00 3.847500e-01 0.000000e+00
2.178000e+00 3.847500e-01 0.000000e+00
1.452000e+00 5.130000e-01 0.000000e+00
1.633500e+00 5.130000e-01 0.000000e+00
1.815000e+00 5.130000e-01 0.000000e+00
1.996500e+00 5.130000e-01 0.000000e+00
2.178000e+00 5.130000e-01 0.000000e+00
2.178000e+00 0.000000e+00 0.000000e+00
2.359500e+00 0.000000e+00 0.000000e+00
2.541000e+00 0.000000e+00 0.000000e+00
2.722500e+00 0.000000e+00 0.000000e+00
2.904000e+00 0.000000e+00 0.000000e+00
2.178000e+00 1.282500e-01 0.000000e+00
2.359500e+00 1.282500e-01 0.000000e+00
2.541000e+00 1.282500e-01 0.000000e+00
2.722500e+00 1.282500e-01 0.000000e+00
2.904000e+00 1.282500e-01 0.000000e+00
2.178000e+00 2.565000e-01 0.000000e+00
2.359500e+00 2.565000e-01 0.000000e+00
2.541000e+00 2.565000e-01 0.000000e+00
2.722500e+00 2.565000e-01 0.000000e+00
2.904000e+00 2.565000e-01 0.000000e+00
2.178000e+00 3.847500e-01 0.000000e+00
2.359500e+00 3.847500e-01 0.000000e+00
2.541000e+00 3.847500e-01 0.000000e+00
2.722500e+00 3.847500e-01 0.000000e+00
2.904000e+00 3.847500e-01 0.000000e+00
2.178000e+00 5.130000e-01 0.000000e+00
2.359500e+00 5.130000e-01 0.000000e+00
2.541000e+00 5.130000e-01 0.000000e+00
2.722500e+00 5.130000e-01 0.000000e+00
2.904000e+00 5.130000e-01 0.000000e+00
2.904000e+00 0.000000e+00 0.000000e+00
3.085500e+00 0.000000e+00 0.000000e+00
3.267000e+00 0.000000e+00 0.000000e+00
3.448500e+00 0.000000e+00 0.000000e+00
3.630000e+00 0.000000e+00 0.000000e+00
2.904000e+00 1.282500e-01 0.000000e+00
3.085500e+00 1.282500e-01 0.000000e+00
3.267000e+00 1.282500e-01 0.000000e+00
3.448500e+00 1.282500e-01 0.000000e+00
3.630000e+00 1.282500e-01 0.000000e+00
2.904000e+00 2.565000e-01 0.000000e+00
3.085500e+00 2.565000e-01 0.000000e+00
3.267000e+00 2.565000e-01 0.000000e+00
3.448500e+00 2.565000e-01 0.000000e+00
3.630000e+00 2.565000e-01 0.000000e+00
2.904000e+00 3.847500e-01 0.000000e+00
3.085500e+00 3.847500e-01 0.000000e+00
3.267000e+00 3.847500e-01 0.000000e+00
3.448500e+00 3.847500e-01 0.000000e+00
3.630000e+00 3.847500e-01 0.000000e+00
2.904000e+00 5.130000e-01 0.000000e+00
[...]
<PointData>
<DataArray type="Float32" Name="V1" format="ascii">
0.000000e+00
0.000000e+00
0.000000e+00
0.000000e+00
0.000000e+00
1.264110e-02
1.120620e-02
1.006780e-02
9.225910e-03
8.680520e-03
2.028400e-02
1.844830e-02
1.691610e-02
1.568740e-02
1.476230e-02
2.292870e-02
2.172620e-02
2.054480e-02
1.938450e-02
1.824540e-02
2.057510e-02
2.103990e-02
2.095390e-02
2.031720e-02
1.912980e-02
0.000000e+00
0.000000e+00
0.000000e+00
0.000000e+00
0.000000e+00
8.680520e-03
7.804050e-03
6.812980e-03
5.707310e-03
4.487030e-03
1.476230e-02
1.344670e-02
1.185370e-02
9.983260e-03
7.835470e-03
1.824540e-02
1.692790e-02
1.512210e-02
1.282790e-02
1.004530e-02
1.912980e-02
1.824770e-02
1.661820e-02
1.424110e-02
1.111660e-02
0.000000e+00
0.000000e+00
0.000000e+00
0.000000e+00
0.000000e+00
4.487030e-03
2.166040e-03
1.103000e-03
1.297940e-03
2.750830e-03
7.835470e-03
3.880840e-03
1.965910e-03
2.090690e-03
4.255170e-03
1.004530e-02
5.144420e-03
2.588730e-03
2.378250e-03
4.513000e-03
1.111660e-02
5.956760e-03
2.971450e-03
2.160640e-03
3.524330e-03
0.000000e+00
0.000000e+00
0.000000e+00
0.000000e+00
0.000000e+00
2.750830e-03
-1.343520e-03
-5.694570e-03
-1.030230e-02
-1.516670e-02
4.255170e-03
-4.108830e-03
-1.255520e-02
-2.108410e-02
-2.969540e-02
4.513000e-03
-8.295920e-03
-2.058200e-02
-3.234540e-02
-4.358590e-02
3.524330e-03
-1.390480e-02
-2.977490e-02
-4.408610e-02
-5.683820e-02
0.000000e+00
0.000000e+00
0.000000e+00
0.000000e+00
0.000000e+00
-1.516670e-02
-2.101980e-02
-2.914580e-02
-3.954500e-02
-5.221710e-02
-2.969540e-02
-3.918380e-02
-5.139060e-02
-6.631560e-02
-8.395910e-02
-4.358590e-02
-5.449210e-02
-6.673410e-02
-8.031210e-02
-9.522580e-02
-5.683820e-02
-6.694460e-02
-7.517660e-02
-8.153420e-02
-8.601740e-02
0.000000e+00
0.000000e+00
0.000000e+00
0.000000e+00
0.000000e+00
-5.221710e-02
-4.825850e-02
-4.256860e-02
-3.514730e-02
-2.599470e-02
-8.395910e-02
-7.671570e-02
-6.693280e-02
-5.461030e-02
-3.974830e-02
-9.522580e-02
-8.537160e-02
-7.309260e-02
-5.838900e-02
-4.126070e-02
-8.601740e-02
-7.422610e-02
-6.104820e-02
-4.648350e-02
-3.053210e-02
0.000000e+00
0.000000e+00
0.000000e+00
0.000000e+00
0.000000e+00
-2.599470e-02
-2.039300e-02
-1.532340e-02
-1.078570e-02
-6.780040e-03
-3.974830e-02
-3.114950e-02
-2.342570e-02
-1.657700e-02
-1.060330e-02
-4.126070e-02
-3.226930e-02
-2.430700e-02
-1.737380e-02
-1.146980e-02
-3.053210e-02
-2.375250e-02
-1.796720e-02
-1.317620e-02
-9.379550e-03
0.000000e+00
0.000000e+00
0.000000e+00
0.000000e+00
0.000000e+00
-6.780040e-03
-1.361330e-03
2.542130e-03
4.930340e-03
5.803290e-03
-1.060330e-02
-1.893610e-03
4.431870e-03
8.373100e-03
9.930100e-03
-1.146980e-02
-1.596840e-03
5.669200e-03
1.032830e-02
1.238040e-02
-9.379550e-03
-4.710220e-04
6.254120e-03
1.079590e-02
1.315430e-02
0.000000e+00
0.000000e+00
0.000000e+00
0.000000e+00
0.000000e+00
5.803290e-03
7.000120e-03
8.075500e-03
9.029440e-03
9.861950e-03
9.930100e-03
1.179170e-02
1.348050e-02
1.499660e-02
1.633990e-02
1.238040e-02
1.437460e-02
1.621490e-02
1.790130e-02
1.943390e-02
1.315430e-02
1.474900e-02
1.627880e-02
1.774380e-02
1.914390e-02
0.000000e+00
0.000000e+00
0.000000e+00
0.000000e+00
0.000000e+00
9.861950e-03
1.054040e-02
1.127770e-02
1.207380e-02
1.292870e-02
1.633990e-02
1.759030e-02
1.884810e-02
2.011330e-02
2.138600e-02
1.943390e-02
2.114960e-02
2.271120e-02
2.411860e-02
2.537190e-02
1.914390e-02
2.121830e-02
2.286690e-02
2.408970e-02
2.488660e-02
2.057510e-02
2.103990e-02
2.095390e-02
2.031720e-02
1.912980e-02
2.078850e-02
2.075360e-02
2.041810e-02
1.978180e-02
1.884480e-02
2.103660e-02
2.066010e-02
2.016890e-02
1.956300e-02
1.884250e-02
2.131930e-02
2.075910e-02
2.020640e-02
1.966100e-02
1.912300e-02
2.163650e-02
2.105090e-02
2.053060e-02
2.007570e-02
1.968620e-02
1.912980e-02
1.824770e-02
1.661820e-02
1.424110e-02
1.111660e-02
1.884480e-02
1.791820e-02
1.649520e-02
1.457570e-02
1.215990e-02
1.884250e-02
1.783930e-02
1.660850e-02
1.515010e-02
1.346400e-02
1.912300e-02
1.801110e-02
1.695820e-02
1.596410e-02
1.502900e-02
1.968620e-02
1.843360e-02
1.754420e-02
1.701800e-02
1.685490e-02
1.111660e-02
5.956760e-03
2.971450e-03
2.160640e-03
3.524330e-03
1.215990e-02
6.819630e-03
4.204440e-03
4.314310e-03
7.149220e-03
1.346400e-02
7.920580e-03
5.686540e-03
6.761920e-03
1.114670e-02
1.502900e-02
9.259610e-03
7.417750e-03
9.503470e-03
1.551680e-02
1.685490e-02
1.083670e-02
9.398060e-03
1.253900e-02
2.025950e-02
3.524330e-03
-1.390480e-02
-2.977490e-02
-4.408610e-02
-5.683820e-02
7.149220e-03
-9.520310e-03
-2.440610e-02
-3.750800e-02
-4.882620e-02
1.114670e-02
-3.708140e-03
-1.670190e-02
-2.783460e-02
-3.710630e-02
1.551680e-02
3.531720e-03
-6.662500e-03
-1.506590e-02
-2.167840e-02
2.025950e-02
1.219930e-02
5.712180e-03
7.981950e-04
-2.542680e-03
-5.683820e-02
-6.694460e-02
-7.517660e-02
-8.153420e-02
-8.601740e-02
-4.882620e-02
-5.644750e-02
-6.464840e-02
-7.342880e-02
-8.278880e-02
-3.710630e-02
-4.176920e-02
-4.837460e-02
-5.692250e-02
-6.741310e-02
-2.167840e-02
-2.290950e-02
-2.635510e-02
-3.201530e-02
-3.989010e-02
-2.542680e-03
1.315560e-04
1.410080e-03
1.292900e-03
-2.199850e-04
-8.601740e-02
-7.422610e-02
-6.104820e-02
-4.648350e-02
-3.053210e-02
-8.278880e-02
-7.134150e-02
-5.801810e-02
-4.281860e-02
-2.574320e-02
-6.741310e-02
-5.774280e-02
-4.624490e-02
-3.291930e-02
-1.776600e-02
-3.989010e-02
-3.343030e-02
-2.572880e-02
-1.678550e-02
-6.600590e-03
-2.199850e-04
1.596180e-03
3.530420e-03
5.582730e-03
7.753120e-03
-3.053210e-02
-2.375250e-02
-1.796720e-02
-1.317620e-02
-9.379550e-03
-2.574320e-02
-1.889330e-02
-1.380310e-02
-1.047260e-02
-8.901850e-03
-1.776600e-02
-1.153080e-02
-7.628310e-03
-6.058510e-03
-6.821410e-03
-6.600590e-03
-1.665030e-03
5.572230e-04
6.615510e-05
-3.138230e-03
7.753120e-03
1.070410e-02
1.075350e-02
7.901350e-03
2.147680e-03
-9.379550e-03
-4.710220e-04
6.254120e-03
1.079590e-02
1.315430e-02
-8.901850e-03
1.087690e-03
8.338070e-03
1.284930e-02
1.462130e-02
-6.821410e-03
3.317210e-03
1.051630e-02
1.477580e-02
1.609570e-02
-3.138230e-03
6.217550e-03
1.278870e-02
1.657540e-02
1.757740e-02
2.147680e-03
9.788690e-03
1.515550e-02
1.824810e-02
1.906640e-02
1.315430e-02
1.474900e-02
1.627880e-02
1.774380e-02
1.914390e-02
1.462130e-02
1.550210e-02
1.647850e-02
1.755050e-02
1.871820e-02
1.609570e-02
1.638880e-02
1.689670e-02
1.761930e-02
1.855670e-02
1.757740e-02
1.740920e-02
1.753340e-02
1.795010e-02
1.865920e-02
1.906640e-02
1.856320e-02
1.838870e-02
1.854290e-02
1.902580e-02
1.914390e-02
2.121830e-02
2.286690e-02
2.408970e-02
2.488660e-02
1.871820e-02
2.096790e-02
2.266070e-02
2.379680e-02
2.437610e-02
1.855670e-02
2.094320e-02
2.265240e-02
2.368410e-02
2.403850e-02
1.865920e-02
2.114450e-02
2.284200e-02
2.375170e-02
2.387360e-02
1.902580e-02
2.157150e-02
2.322940e-02
2.399940e-02
2.388150e-02
2.163650e-02
2.105090e-02
2.053060e-02
2.007570e-02
1.968620e-02
2.197900e-02
2.141550e-02
2.097720e-02
2.066400e-02
2.047590e-02
2.233590e-02
2.181060e-02
2.145050e-02
2.125560e-02
2.122590e-02
2.270730e-02
2.223610e-02
2.195050e-02
2.185050e-02
2.193620e-02
2.309330e-02
2.269210e-02
2.247720e-02
2.244880e-02
2.260680e-02
1.968620e-02
1.843360e-02
1.754420e-02
1.701800e-02
1.685490e-02
2.047590e-02
1.909310e-02
1.833470e-02
1.820060e-02
1.869090e-02
2.122590e-02
1.978980e-02
1.915630e-02
1.932560e-02
2.029760e-02
2.193620e-02
2.052350e-02
2.000910e-02
2.039300e-02
2.167510e-02
2.260680e-02
2.129440e-02
2.089300e-02
2.140270e-02
2.282330e-02
1.685490e-02
1.083670e-02
9.398060e-03
1.253900e-02
2.025950e-02
1.869090e-02
1.315140e-02
1.201300e-02
1.527560e-02
2.293930e-02
2.029760e-02
1.557500e-02
1.478550e-02
1.792900e-02
2.500560e-02
2.167510e-02
1.810750e-02
1.771560e-02
2.049920e-02
2.645840e-02
2.282330e-02
2.074900e-02
2.080330e-02
2.298620e-02
2.729770e-02
2.025950e-02
1.219930e-02
5.712180e-03
7.981950e-04
-2.542680e-03
2.293930e-02
1.822970e-02
1.509250e-02
1.352780e-02
1.353560e-02
2.500560e-02
2.311970e-02
2.260020e-02
2.344720e-02
2.566080e-02
2.645840e-02
2.686920e-02
2.823520e-02
3.055640e-02
3.383270e-02
2.729770e-02
2.947840e-02
3.199750e-02
3.485520e-02
3.805150e-02
-2.542680e-03
1.315560e-04
1.410080e-03
1.292900e-03
-2.199850e-04
1.353560e-02
2.146300e-02
2.845910e-02
3.452390e-02
3.965740e-02
2.566080e-02
3.708930e-02
4.772920e-02
5.758030e-02
6.664280e-02
3.383270e-02
4.701050e-02
5.922040e-02
7.046230e-02
8.073620e-02
3.805150e-02
5.122660e-02
6.293260e-02
7.316970e-02
8.193780e-02
-2.199850e-04
1.596180e-03
3.530420e-03
5.582730e-03
7.753120e-03
3.965740e-02
3.145740e-02
2.512400e-02
2.065720e-02
1.805680e-02
6.664280e-02
5.316610e-02
4.220170e-02
3.374940e-02
2.780930e-02
8.073620e-02
6.672220e-02
5.476330e-02
4.485950e-02
3.701080e-02
8.193780e-02
7.212570e-02
6.280900e-02
5.398740e-02
4.566110e-02
7.753120e-03
1.070410e-02
1.075350e-02
7.901350e-03
2.147680e-03
1.805680e-02
1.902010e-02
1.768590e-02
1.405430e-02
8.125190e-03
2.780930e-02
2.656030e-02
2.373840e-02
1.934370e-02
1.337620e-02
3.701080e-02
3.332470e-02
2.891100e-02
2.376970e-02
1.790080e-02
4.566110e-02
3.931330e-02
3.320360e-02
2.733220e-02
2.169890e-02
2.147680e-03
9.788690e-03
1.515550e-02
1.824810e-02
1.906640e-02
8.125190e-03
1.342190e-02
1.719160e-02
1.943430e-02
2.014990e-02
1.337620e-02
1.674370e-02
1.917310e-02
2.066420e-02
2.121710e-02
1.790080e-02
1.975420e-02
2.109980e-02
2.193780e-02
2.226800e-02
2.169890e-02
2.245320e-02
2.297200e-02
2.325510e-02
2.330260e-02
1.906640e-02
1.856320e-02
1.838870e-02
1.854290e-02
1.902580e-02
2.014990e-02
1.965900e-02
1.941050e-02
1.940450e-02
1.964100e-02
2.121710e-02
2.072900e-02
2.041210e-02
2.026640e-02
2.029190e-02
2.226800e-02
2.177320e-02
2.139340e-02
2.112860e-02
2.097870e-02
2.330260e-02
2.279160e-02
2.235440e-02
2.199100e-02
2.170120e-02
1.902580e-02
2.157150e-02
2.322940e-02
2.399940e-02
2.388150e-02
1.964100e-02
2.188790e-02
2.335600e-02
2.404520e-02
2.395560e-02
2.029190e-02
2.223590e-02
2.350880e-02
2.411060e-02
2.404120e-02
2.097870e-02
2.261570e-02
2.368790e-02
2.419550e-02
2.413830e-02
2.170120e-02
2.302710e-02
2.389330e-02
2.429990e-02
2.424690e-02
2.309330e-02
2.269210e-02
2.247720e-02
2.244880e-02
2.260680e-02
2.348320e-02
2.315400e-02
2.300520e-02
2.303680e-02
2.324880e-02
2.386930e-02
2.360710e-02
2.351680e-02
2.359860e-02
2.385230e-02
2.425160e-02
2.405140e-02
2.401220e-02
2.413410e-02
2.441700e-02
2.463000e-02
2.448680e-02
2.449130e-02
2.464340e-02
2.494320e-02
2.260680e-02
2.129440e-02
2.089300e-02
2.140270e-02
2.282330e-02
2.324880e-02
2.218620e-02
2.191150e-02
2.242470e-02
2.372590e-02
2.385230e-02
2.304720e-02
2.289910e-02
2.340800e-02
2.457390e-02
2.441700e-02
2.387740e-02
2.385590e-02
2.435260e-02
2.536750e-02
2.494320e-02
2.467670e-02
2.478170e-02
2.525840e-02
2.610670e-02
2.282330e-02
2.074900e-02
2.080330e-02
2.298620e-02
2.729770e-02
2.372590e-02
2.269630e-02
2.312990e-02
2.502670e-02
2.838670e-02
2.457390e-02
2.435810e-02
2.508400e-02
2.675150e-02
2.936060e-02
2.536750e-02
2.573450e-02
2.666550e-02
2.816050e-02
3.021960e-02
2.610670e-02
2.682530e-02
2.787430e-02
2.925380e-02
3.096360e-02
2.729770e-02
2.947840e-02
3.199750e-02
3.485520e-02
3.805150e-02
2.838670e-02
3.143170e-02
3.457660e-02
3.782130e-02
4.116580e-02
2.936060e-02
3.291640e-02
3.638250e-02
3.975900e-02
4.304570e-02
3.021960e-02
3.393250e-02
3.741540e-02
4.066830e-02
4.369120e-02
3.096360e-02
3.448000e-02
3.767520e-02
4.054940e-02
4.310240e-02
3.805150e-02
5.122660e-02
6.293260e-02
7.316970e-02
8.193780e-02
4.116580e-02
5.253120e-02
6.267000e-02
7.158220e-02
7.926770e-02
4.304570e-02
5.249330e-02
6.090690e-02
6.828650e-02
7.463210e-02
4.369120e-02
5.111270e-02
5.764310e-02
6.328250e-02
6.803090e-02
4.310240e-02
4.838950e-02
5.287880e-02
5.657040e-02
5.946420e-02
8.193780e-02
7.212570e-02
6.280900e-02
5.398740e-02
4.566110e-02
7.926770e-02
7.019220e-02
6.159580e-02
5.347870e-02
4.584080e-02
7.463210e-02
6.694720e-02
5.965530e-02
5.275610e-02
4.624980e-02
6.803090e-02
6.239100e-02
5.698730e-02
5.181970e-02
4.688820e-02
5.946420e-02
5.652350e-02
5.359190e-02
5.066940e-02
4.775600e-02
4.566110e-02
3.931330e-02
3.320360e-02
2.733220e-02
2.169890e-02
4.584080e-02
3.989480e-02
3.430640e-02
2.907550e-02
2.420210e-02
4.624980e-02
4.062380e-02
3.543640e-02
3.068770e-02
2.637760e-02
4.688820e-02
4.150000e-02
3.659350e-02
3.216860e-02
2.822530e-02
4.775600e-02
4.252370e-02
3.777780e-02
3.351840e-02
2.974540e-02
2.169890e-02
2.245320e-02
2.297200e-02
2.325510e-02
2.330260e-02
2.420210e-02
2.449680e-02
2.461900e-02
2.456880e-02
2.434610e-02
2.637760e-02
2.625470e-02
2.602810e-02
2.569770e-02
2.526350e-02
2.822530e-02
2.772700e-02
2.719920e-02
2.664170e-02
2.605470e-02
2.974540e-02
2.891380e-02
2.813230e-02
2.740100e-02
2.671970e-02
2.330260e-02
2.279160e-02
2.235440e-02
2.199100e-02
2.170120e-02
2.434610e-02
2.373530e-02
2.319620e-02
2.272890e-02
2.233340e-02
2.526350e-02
2.457720e-02
2.396250e-02
2.341960e-02
2.294840e-02
2.605470e-02
2.531730e-02
2.465340e-02
2.406310e-02
2.354650e-02
2.671970e-02
2.595560e-02
2.526880e-02
2.465940e-02
2.412740e-02
2.170120e-02
2.302710e-02
2.389330e-02
2.429990e-02
2.424690e-02
2.233340e-02
2.346410e-02
2.418110e-02
2.448460e-02
2.437450e-02
2.294840e-02
2.388910e-02
2.446090e-02
2.466380e-02
2.449800e-02
2.354650e-02
2.430210e-02
2.473250e-02
2.483770e-02
2.461760e-02
2.412740e-02
2.470320e-02
2.499610e-02
2.500600e-02
2.473310e-02
2.463000e-02
2.448680e-02
2.449130e-02
2.464340e-02
2.494320e-02
2.499690e-02
2.490130e-02
2.494040e-02
2.511440e-02
2.542320e-02
2.534870e-02
2.529820e-02
2.536940e-02
2.556230e-02
2.587690e-02
2.568540e-02
2.567760e-02
2.577820e-02
2.598720e-02
2.630440e-02
2.600690e-02
2.603960e-02
2.616690e-02
2.638890e-02
2.670560e-02
2.494320e-02
2.467670e-02
2.478170e-02
2.525840e-02
2.610670e-02
2.542320e-02
2.533890e-02
2.553940e-02
2.602480e-02
2.679500e-02
2.587690e-02
2.594080e-02
2.621900e-02
2.671170e-02
2.741870e-02
2.630440e-02
2.648240e-02
2.682060e-02
2.731900e-02
2.797770e-02
2.670560e-02
2.696370e-02
2.734410e-02
2.784690e-02
2.847200e-02
2.610670e-02
2.682530e-02
2.787430e-02
2.925380e-02
3.096360e-02
2.679500e-02
2.771950e-02
2.883980e-02
3.015600e-02
3.166810e-02
2.741870e-02
2.847390e-02
2.962740e-02
3.087940e-02
3.222980e-02
2.797770e-02
2.908840e-02
3.023710e-02
3.142390e-02
3.264880e-02
2.847200e-02
2.956310e-02
3.066890e-02
3.178950e-02
3.292490e-02
3.096360e-02
3.448000e-02
3.767520e-02
4.054940e-02
4.310240e-02
3.166810e-02
3.486640e-02
3.774400e-02
4.030080e-02
4.253690e-02
3.222980e-02
3.508780e-02
3.764970e-02
3.991570e-02
4.188580e-02
3.264880e-02
3.514400e-02
3.739240e-02
3.939410e-02
4.114900e-02
3.292490e-02
3.503500e-02
3.697200e-02
3.873590e-02
4.032660e-02
4.310240e-02
4.838950e-02
5.287880e-02
5.657040e-02
5.946420e-02
4.253690e-02
4.666100e-02
5.021440e-02
5.319730e-02
5.560960e-02
4.188580e-02
4.509130e-02
4.788440e-02
5.026500e-02
5.223320e-02
4.114900e-02
4.368040e-02
4.588860e-02
4.777350e-02
4.933510e-02
4.032660e-02
4.242840e-02
4.422720e-02
4.572280e-02
4.691530e-02
5.946420e-02
5.652350e-02
5.359190e-02
5.066940e-02
4.775600e-02
5.560960e-02
5.341980e-02
5.108370e-02
4.860140e-02
4.597290e-02
5.223320e-02
5.061370e-02
4.876910e-02
4.669940e-02
4.440460e-02
4.933510e-02
4.810520e-02
4.664790e-02
4.496320e-02
4.305120e-02
4.691530e-02
4.589420e-02
4.472010e-02
4.339300e-02
4.191270e-02
4.775600e-02
4.252370e-02
3.777780e-02
3.351840e-02
2.974540e-02
4.597290e-02
4.154010e-02
3.755250e-02
3.401010e-02
3.091280e-02
4.440460e-02
4.071880e-02
3.740770e-02
3.447130e-02
3.190960e-02
4.305120e-02
4.005990e-02
3.734360e-02
3.490220e-02
3.273580e-02
4.191270e-02
3.956340e-02
3.736010e-02
3.530280e-02
3.339140e-02
2.974540e-02
2.891380e-02
2.813230e-02
2.740100e-02
2.671970e-02
3.091280e-02
2.991910e-02
2.898020e-02
2.809590e-02
2.726630e-02
3.190960e-02
3.075150e-02
2.966870e-02
2.866120e-02
2.772910e-02
3.273580e-02
3.141080e-02
3.019780e-02
2.909690e-02
2.810810e-02
3.339140e-02
3.189700e-02
3.056750e-02
2.940290e-02
2.840320e-02
2.671970e-02
2.595560e-02
2.526880e-02
2.465940e-02
2.412740e-02
2.726630e-02
2.654240e-02
2.588990e-02
2.530880e-02
2.479900e-02
2.772910e-02
2.705130e-02
2.643670e-02
2.588550e-02
2.539760e-02
2.810810e-02
2.748220e-02
2.690930e-02
2.638960e-02
2.592290e-02
2.840320e-02
2.783510e-02
2.730770e-02
2.682110e-02
2.637510e-02
2.412740e-02
2.470320e-02
2.499610e-02
2.500600e-02
2.473310e-02
2.479900e-02
2.508800e-02
2.520180e-02
2.514040e-02
2.490390e-02
2.539760e-02
2.543260e-02
2.539080e-02
2.527220e-02
2.507690e-02
2.592290e-02
2.573680e-02
2.556300e-02
2.540130e-02
2.525190e-02
2.637510e-02
2.600080e-02
2.571840e-02
2.552780e-02
2.542920e-02
2.600690e-02
2.603960e-02
2.616690e-02
2.638890e-02
2.670560e-02
2.630990e-02
2.637810e-02
2.652860e-02
2.676150e-02
2.707670e-02
2.659390e-02
2.669400e-02
2.686470e-02
2.710600e-02
2.741800e-02
2.685910e-02
2.698730e-02
2.717520e-02
2.742260e-02
2.772960e-02
2.710540e-02
2.725810e-02
2.746000e-02
2.771110e-02
2.801140e-02
2.670560e-02
2.696370e-02
2.734410e-02
2.784690e-02
2.847200e-02
2.707670e-02
2.737990e-02
2.778520e-02
2.829270e-02
2.890220e-02
2.741800e-02
2.775400e-02
2.817430e-02
2.867900e-02
2.926800e-02
2.772960e-02
2.808600e-02
2.851150e-02
2.900590e-02
2.956940e-02
2.801140e-02
2.837600e-02
2.879670e-02
2.927350e-02
2.980630e-02
2.847200e-02
2.956310e-02
3.066890e-02
3.178950e-02
3.292490e-02
2.890220e-02
2.993940e-02
3.098250e-02
3.203150e-02
3.308640e-02
2.926800e-02
3.024770e-02
3.122520e-02
3.220060e-02
3.317400e-02
2.956940e-02
3.048770e-02
3.139690e-02
3.229690e-02
3.318780e-02
2.980630e-02
3.065960e-02
3.149760e-02
3.232030e-02
3.312770e-02
3.292490e-02
3.503500e-02
3.697200e-02
3.873590e-02
4.032660e-02
3.308640e-02
3.494110e-02
3.664210e-02
3.818940e-02
3.958290e-02
3.317400e-02
3.479880e-02
3.628700e-02
3.763860e-02
3.885350e-02
3.318780e-02
3.460820e-02
3.590680e-02
3.708350e-02
3.813830e-02
3.312770e-02
3.436930e-02
3.550140e-02
3.652400e-02
3.743720e-02
4.032660e-02
4.242840e-02
4.422720e-02
4.572280e-02
4.691530e-02
3.958290e-02
4.134820e-02
4.283200e-02
4.403440e-02
4.495540e-02
3.885350e-02
4.031130e-02
4.151800e-02
4.247370e-02
4.317820e-02
3.813830e-02
3.931790e-02
4.028530e-02
4.104050e-02
4.158350e-02
3.743720e-02
3.836780e-02
3.913380e-02
3.973500e-02
4.017150e-02
4.691530e-02
4.589420e-02
4.472010e-02
4.339300e-02
4.191270e-02
4.495540e-02
4.404840e-02
4.301090e-02
4.184270e-02
4.054410e-02
4.317820e-02
4.241700e-02
4.153940e-02
4.054520e-02
3.943450e-02
4.158350e-02
4.100010e-02
4.030570e-02
3.950040e-02
3.858400e-02
4.017150e-02
3.979760e-02
3.930980e-02
3.870820e-02
3.799260e-02
4.191270e-02
3.956340e-02
3.736010e-02
3.530280e-02
3.339140e-02
4.054410e-02
3.854440e-02
3.667880e-02
3.494720e-02
3.334960e-02
3.943450e-02
3.773330e-02
3.614600e-02
3.467260e-02
3.331330e-02
3.858400e-02
3.712990e-02
3.576150e-02
3.447910e-02
3.328250e-02
3.799260e-02
3.673430e-02
3.552560e-02
3.436650e-02
3.325710e-02
3.339140e-02
3.189700e-02
3.056750e-02
2.940290e-02
2.840320e-02
3.334960e-02
3.202190e-02
3.081630e-02
2.973300e-02
2.877180e-02
3.331330e-02
3.211600e-02
3.101200e-02
3.000140e-02
2.908430e-02
3.328250e-02
3.217930e-02
3.115460e-02
3.020830e-02
2.934050e-02
3.325710e-02
3.221190e-02
3.124400e-02
3.035360e-02
2.954050e-02
2.840320e-02
2.783510e-02
2.730770e-02
2.682110e-02
2.637510e-02
2.877180e-02
2.818520e-02
2.764160e-02
2.714100e-02
2.668340e-02
2.908430e-02
2.848280e-02
2.792550e-02
2.741230e-02
2.694330e-02
2.934050e-02
2.872790e-02
2.815940e-02
2.763500e-02
2.715470e-02
2.954050e-02
2.892050e-02
2.834340e-02
2.780910e-02
2.731770e-02
2.637510e-02
2.600080e-02
2.571840e-02
2.552780e-02
2.542920e-02
2.668340e-02
2.629000e-02
2.597620e-02
2.574200e-02
2.558760e-02
2.694330e-02
2.654330e-02
2.620850e-02
2.593900e-02
2.573480e-02
2.715470e-02
2.676080e-02
2.641550e-02
2.611880e-02
2.587080e-02
2.731770e-02
2.694240e-02
2.659700e-02
2.628140e-02
2.599570e-02
2.710540e-02
2.725810e-02
2.746000e-02
2.771110e-02
2.801140e-02
2.733260e-02
2.750010e-02
2.770980e-02
2.796170e-02
2.825580e-02
2.754220e-02
2.772180e-02
2.793690e-02
2.818740e-02
2.847340e-02
2.773410e-02
2.792320e-02
2.814130e-02
2.838830e-02
2.866420e-02