<?xml version="1.0"?>
<VTKFile type="UnstructuredGrid" version="0.1" byte_order="LittleEndian" compressor="vtkZLibDataCompressor">
<UnstructuredGrid>
<Piece NumberOfPoints="2500" NumberOfCells="1600">
<Points>
<DataArray type="Float32" NumberOfComponents="3" format="ascii">
-3.630000e+00 0.000000e+00 0.000000e+00
-3.448500e+00 0.000000e+00 0.000000e+00
-3.267000e+00 0.000000e+00 0.000000e+00
-3.085500e+00 0.000000e+00 0.000000e+00
-2.904000e+00 0.000000e+00 0.000000e+00
-3.630000e+00 1.282500e-01 0.000000e+00
-3.448500e+00 1.282500e-01 0.000000e+00
-3.267000e+00 1.282500e-01 0.000000e+00
-3.085500e+00 1.282500e-01 0.000000e+00
-2.904000e+00 1.282500e-01 0.000000e+00
-3.630000e+00 2.565000e-01 0.000000e+00
-3.448500e+00 2.565000e-01 0.000000e+00
-3.267000e+00 2.565000e-01 0.000000e+00
-3.085500e+00 2.565000e-01 0.000000e+00
-2.904000e+00 2.565000e-01 0.000000e+00
-3.630000e+00 3.847500e-01 0.000000e+00
-3.448500e+00 3.847500e-01 0.000000e+00
-3.267000e+00 3.847500e-01 0.000000e+00
-3.085500e+00 3.847500e-01 0.000000e+00
-2.904000e+00 3.847500e-01 0.000000e+00
-3.630000e+00 5.130000e-01 0.000000e+00
-3.448500e+00 5.130000e-01 0.000000e+00
-3.267000e+00 5.130000e-01 0.000000e+00
-3.085500e+00 5.130000e-01 0.000000e+00
-2.904000e+00 5.130000e-01 0.000000e+00
-2.904000e+00 0.000000e+00 0.000000e+00
-2.722500e+00 0.000000e+00 0.000000e+00
-2.541000e+00 0.000000e+00 0.000000e+00
-2.359500e+00 0.000000e+00 0.000000e+00
-2.178000e+00 0.000000e+00 0.000000e+00
-2.904000e+00 1.282500e-01 0.000000e+00
-2.722500e+00 1.282500e-01 0.000000e+00
-2.541000e+00 1.282500e-01 0.000000e+00
-2.359500e+00 1.282500e-01 0.000000e+00
-2.178000e+00 1.282500e-01 0.000000e+00
-2.904000e+00 2.565000e-01 0.000000e+00
-2.722500e+00 2.565000e-01 0.000000e+00
-2.541000e+00 2.565000e-01 0.000000e+00
-2.359500e+00 2.565000e-01 0.000000e+00
-2.178000e+00 2.565000e-01 0.000000e+00
-2.904000e+00 3.847500e-01 0.000000e+00
-2.722500e+00 3.847500e-01 0.000000e+00
-2.541000e+00 3.847500e-01 0.000000e+00
-2.359500e+00 3.847500e-01 0.000000e+00
-2.178000e+00 3.847500e-01 0.000000e+00
-2.904000e+00 5.130000e-01 0.000000e+00
-2.722500e+00 5.130000e-01 0.000000e+00
-2.541000e+00 5.130000e-01 0.000000e+00
-2.359500e+00 5.130000e-01 0.000000e+00
-2.178000e+00 5.130000e-01 0.000000e+00
-2.178000e+00 0.000000e+00 0.000000e+00
-1.996500e+00 0.000000e+00 0.000000e+00
-1.815000e+00 0.000000e+00 0.000000e+00
-1.633500e+00 0.000000e+00 0.000000e+00
-1.452000e+00 0.000000e+00 0.000000e+00
-2.178000e+00 1.282500e-01 0.000000e+00
-1.996500e+00 1.282500e-01 0.000000e+00
-1.815000e+00 1.282500e-01 0.000000e+00
-1.633500e+00 1.282500e-01 0.000000e+00
-1.452000e+00 1.282500e-01 0.000000e+00
-2.178000e+00 2.565000e-01 0.000000e+00
-1.996500e+00 2.565000e-01 0.000000e+00
-1.815000e+00 2.565000e-01 0.000000e+00
-1.633500e+00 2.565000e-01 0.000000e+00
-1.452000e+00 2.565000e-01 0.000000e+00
-2.178000e+00 3.847500e-01 0.000000e+00
-1.996500e+00 3.847500e-01 0.000000e+00
-1.815000e+00 3.847500e-01 0.000000e+00
-1.633500e+00 3.847500e-01 0.000000e+00
-1.452000e+00 3.847500e-01 0.000000e+00
-2.178000e+00 5.130000e-01 0.000000e+00
-1.996500e+00 5.130000e-01 0.000000e+00
-1.815000e+00 5.130000e-01 0.000000e+00
-1.633500e+00 5.130000e-01 0.000000e+00
-1.452000e+00 5.130000e-01 0.000000e+00
-1.452000e+00 0.000000e+00 0.000000e+00
-1.270500e+00 0.000000e+00 0.000000e+00
-1.089000e+00 0.000000e+00 0.000000e+00
-9.075000e-01 0.000000e+00 0.000000e+00
-7.260000e-01 0.000000e+00 0.000000e+00
-1.452000e+00 1.282500e-01 0.000000e+00
-1.270500e+00 1.282500e-01 0.000000e+00
-1.089000e+00 1.282500e-01 0.000000e+00
-9.075000e-01 1.282500e-01 0.000000e+00
-7.260000e-01 1.282500e-01 0.000000e+00
-1.452000e+00 2.565000e-01 0.000000e+00
-1.270500e+00 2.565000e-01 0.000000e+00
-1.089000e+00 2.565000e-01 0.000000e+00
-9.075000e-01 2.565000e-01 0.000000e+00
-7.260000e-01 2.565000e-01 0.000000e+00
-1.452000e+00 3.847500e-01 0.000000e+00
-1.270500e+00 3.847500e-01 0.000000e+00
-1.089000e+00 3.847500e-01 0.000000e+00
-9.075000e-01 3.847500e-01 0.000000e+00
-7.260000e-01 3.847500e-01 0.000000e+00
-1.452000e+00 5.130000e-01 0.000000e+00
-1.270500e+00 5.130000e-01 0.000000e+00
-1.089000e+00 5.130000e-01 0.000000e+00
-9.075000e-01 5.130000e-01 0.000000e+00
-7.260000e-01 5.130000e-01 0.000000e+00
-7.260000e-01 0.000000e+00 0.000000e+00
-5.445000e-01 0.000000e+00 0.000000e+00
-3.630000e-01 0.000000e+00 0.000000e+00
-1.815000e-01 0.000000e+00 0.000000e+00
0.000000e+00 0.000000e+00 0.000000e+00
-7.260000e-01 1.282500e-01 0.000000e+00
-5.445000e-01 1.282500e-01 0.000000e+00
-3.630000e-01 1.282500e-01 0.000000e+00
-1.815000e-01 1.282500e-01 0.000000e+00
0.000000e+00 1.282500e-01 0.000000e+00
-7.260000e-01 2.565000e-01 0.000000e+00
-5.445000e-01 2.565000e-01 0.000000e+00
-3.630000e-01 2.565000e-01 0.000000e+00
-1.815000e-01 2.565000e-01 0.000000e+00
0.000000e+00 2.565000e-01 0.000000e+00
-7.260000e-01 3.847500e-01 0.000000e+00
-5.445000e-01 3.847500e-01 0.000000e+00
-3.630000e-01 3.847500e-01 0.000000e+00
-1.815000e-01 3.847500e-01 0.000000e+00
0.000000e+00 3.847500e-01 0.000000e+00
-7.260000e-01 5.130000e-01 0.000000e+00
-5.445000e-01 5.130000e-01 0.000000e+00
-3.630000e-01 5.130000e-01 0.000000e+00
-1.815000e-01 5.130000e-01 0.000000e+00
0.000000e+00 5.130000e-01 0.000000e+00
0.000000e+00 0.000000e+00 0.000000e+00
1.815000e-01 0.000000e+00 0.000000e+00
3.630000e-01 0.000000e+00 0.000000e+00
5.445000e-01 0.000000e+00 0.000000e+00
7.260000e-01 0.000000e+00 0.000000e+00
0.000000e+00 1.282500e-01 0.000000e+00
1.815000e-01 1.282500e-01 0.000000e+00
3.630000e-01 1.282500e-01 0.000000e+00
5.445000e-01 1.282500e-01 0.000000e+00
7.260000e-01 1.282500e-01 0.000000e+00
0.000000e+00 2.565000e-01 0.000000e+00
1.815000e-01 2.565000e-01 0.000000e+00
3.630000e-01 2.565000e-01 0.000000e+00
5.445000e-01 2.565000e-01 0.000000e+00
7.260000e-01 2.565000e-01 0.000000e+00
0.000000e+00 3.847500e-01 0.000000e+00
1.815000e-01 3.847500e-01 0.000000e+00
3.630000e-01 3.847500e-01 0.000000e+00
5.445000e-01 3.847500e-01 0.000000e+00
7.260000e-01 3.847500e-01 0.000000e+00
0.000000e+00 5.130000e-01 0.000000e+00
1.815000e-01 5.130000e-01 0.000000e+00
3.630000e-01 5.130000e-01 0.000000e+00
5.445000e-01 5.130000e-01 0.000000e+00
7.260000e-01 5.130000e-01 0.000000e+00
7.260000e-01 0.000000e+00 0.000000e+00
9.075000e-01 0.000000e+00 0.000000e+00
1.089000e+00 0.000000e+00 0.000000e+00
1.270500e+00 0.000000e+00 0.000000e+00
1.452000e+00 0.000000e+00 0.000000e+00
7.260000e-01 1.282500e-01 0.000000e+00
9.075000e-01 1.282500e-01 0.000000e+00
1.089000e+00 1.282500e-01 0.000000e+00
1.270500e+00 1.282500e-01 0.000000e+00
1.452000e+00 1.282500e-01 0.000000e+00
7.260000e-01 2.565000e-01 0.000000e+00
9.075000e-01 2.565000e-01 0.000000e+00
1.089000e+00 2.565000e-01 0.000000e+00
1.270500e+00 2.565000e-01 0.000000e+00
1.452000e+00 2.565000e-01 0.000000e+00
7.260000e-01 3.847500e-01 0.000000e+00
9.075000e-01 3.847500e-01 0.000000e+00
1.089000e+00 3.847500e-01 0.000000e+00
1.270500e+00 3.847500e-01 0.000000e+00
1.452000e+00 3.847500e-01 0.000000e+00
7.260000e-01 5.130000e-01 0.000000e+00
9.075000e-01 5.130000e-01 0.000000e+00
1.089000e+00 5.130000e-01 0.000000e+00
1.270500e+00 5.130000e-01 0.000000e+00
1.452000e+00 5.130000e-01 0.000000e+00
1.452000e+00 0.000000e+00 0.000000e+00
1.633500e+00 0.000000e+00 0.000000e+00
1.815000e+00 0.000000e+00 0.000000e+00
1.996500e+00 0.000000e+00 0.000000e+00
2.178000e+00 0.000000e+00 0.000000e+00
1.452000e+00 1.282500e-01 0.000000e+00
1.633500e+00 1.282500e-01 0.000000e+00
1.815000e+00 1.282500e-01 0.000000e+00
1.996500e+00 1.282500e-01 0.000000e+00
2.178000e+00 1.282500e-01 0.000000e+00
1.452000e+00 2.565000e-01 0.000000e+00
1.633500e+00 2.565000e-01 0.000000e+00
1.815000e+00 2.565000e-01 0.000000e+00
1.996500e+00 2.565000e-01 0.000000e+00
2.178000e+00 2.565000e-01 0.000000e+00
1.452000e+00 3.847500e-01 0.000000e+00
1.633500e+00 3.847500e-01 0.000000e+00
1.815000e+00 3.847500e-01 0.000000e+00
1.996500e+00 3.847500e-01 0.000000e+00
2.178000e+00 3.847500e-01 0.000000e+00
1.452000e+00 5.130000e-01 0.000000e+00
1.633500e+00 5.130000e-01 0.000000e+00
1.815000e+00 5.130000e-01 0.000000e+00
1.996500e+00 5.130000e-01 0.000000e+00
2.178000e+00 5.130000e-01 0.000000e+00
2.178000e+00 0.000000e+00 0.000000e+00
2.359500e+00 0.000000e+00 0.000000e+00
2.541000e+00 0.000000e+00 0.000000e+00
2.722500e+00 0.000000e+00 0.000000e+00
2.904000e+00 0.000000e+00 0.000000e+00
2.178000e+00 1.282500e-01 0.000000e+00
2.359500e+00 1.282500e-01 0.000000e+00
2.541000e+00 1.282500e-01 0.000000e+00
2.722500e+00 1.282500e-01 0.000000e+00
2.904000e+00 1.282500e-01 0.000000e+00
2.178000e+00 2.565000e-01 0.000000e+00
2.359500e+00 2.565000e-01 0.000000e+00
2.541000e+00 2.565000e-01 0.000000e+00
2.722500e+00 2.565000e-01 0.000000e+00
2.904000e+00 2.565000e-01 0.000000e+00
2.178000e+00 3.847500e-01 0.000000e+00
2.359500e+00 3.847500e-01 0.000000e+00
2.541000e+00 3.847500e-01 0.000000e+00
2.722500e+00 3.847500e-01 0.000000e+00
2.904000e+00 3.847500e-01 0.000000e+00
2.178000e+00 5.130000e-01 0.000000e+00
2.359500e+00 5.130000e-01 0.000000e+00
2.541000e+00 5.130000e-01 0.000000e+00
2.722500e+00 5.130000e-01 0.000000e+00
2.904000e+00 5.130000e-01 0.000000e+00
2.904000e+00 0.000000e+00 0.000000e+00
3.085500e+00 0.000000e+00 0.000000e+00
3.267000e+00 0.000000e+00 0.000000e+00
3.448500e+00 0.000000e+00 0.000000e+00
3.630000e+00 0.000000e+00 0.000000e+00
2.904000e+00 1.282500e-01 0.000000e+00
3.085500e+00 1.282500e-01 0.000000e+00
3.267000e+00 1.282500e-01 0.000000e+00
3.448500e+00 1.282500e-01 0.000000e+00
3.630000e+00 1.282500e-01 0.000000e+00
2.904000e+00 2.565000e-01 0.000000e+00
3.085500e+00 2.565000e-01 0.000000e+00
3.267000e+00 2.565000e-01 0.000000e+00
3.448500e+00 2.565000e-01 0.000000e+00
3.630000e+00 2.565000e-01 0.000000e+00
2.904000e+00 3.847500e-01 0.000000e+00
3.085500e+00 3.847500e-01 0.000000e+00
3.267000e+00 3.847500e-01 0.000000e+00
3.448500e+00 3.847500e-01 0.000000e+00
3.630000e+00 3.847500e-01 0.000000e+00
2.904000e+00 5.130000e-01 0.000000e+00
[...]
<PointData>
<DataArray type="Float32" Name="V1" format="ascii">
0.000000e+00
0.000000e+00
0.000000e+00
0.000000e+00
0.000000e+00
1.264110e-02
1.121860e-02
1.009000e-02
9.255340e-03
8.714670e-03
2.028400e-02
1.846490e-02
1.694530e-02
1.572500e-02
1.480420e-02
2.292870e-02
2.173910e-02
2.056590e-02
1.940910e-02
1.826860e-02
2.057510e-02
2.104110e-02
2.095190e-02
2.030750e-02
1.910790e-02
0.000000e+00
0.000000e+00
0.000000e+00
0.000000e+00
0.000000e+00
8.714670e-03
7.849400e-03
6.855760e-03
5.733750e-03
4.483370e-03
1.480420e-02
1.350370e-02
1.190690e-02
1.001370e-02
7.824130e-03
1.826860e-02
1.696300e-02
1.515340e-02
1.283980e-02
1.002230e-02
1.910790e-02
1.822720e-02
1.659530e-02
1.421210e-02
1.107780e-02
0.000000e+00
0.000000e+00
0.000000e+00
0.000000e+00
0.000000e+00
4.483370e-03
2.134070e-03
1.040860e-03
1.203760e-03
2.622750e-03
7.824130e-03
3.829830e-03
1.873440e-03
1.954950e-03
4.074370e-03
1.002230e-02
5.087280e-03
2.497730e-03
2.253590e-03
4.354880e-03
1.107780e-02
5.906420e-03
2.913730e-03
2.099670e-03
3.464260e-03
0.000000e+00
0.000000e+00
0.000000e+00
0.000000e+00
0.000000e+00
2.622750e-03
-1.630350e-03
-6.126780e-03
-1.086650e-02
-1.584960e-02
4.074370e-03
-4.507460e-03
-1.315830e-02
-2.187810e-02
-3.066690e-02
4.354880e-03
-8.631320e-03
-2.109450e-02
-3.303460e-02
-4.445180e-02
3.464260e-03
-1.400190e-02
-2.993540e-02
-4.433620e-02
-5.720430e-02
0.000000e+00
0.000000e+00
0.000000e+00
0.000000e+00
0.000000e+00
-1.584960e-02
-2.153590e-02
-2.951480e-02
-3.978630e-02
-5.235050e-02
-3.066690e-02
-3.994980e-02
-5.196780e-02
-6.672070e-02
-8.420860e-02
-4.445180e-02
-5.524180e-02
-6.735890e-02
-8.080310e-02
-9.557450e-02
-5.720430e-02
-6.741180e-02
-7.568830e-02
-8.203360e-02
-8.644790e-02
0.000000e+00
0.000000e+00
0.000000e+00
0.000000e+00
0.000000e+00
-5.235050e-02
-4.846290e-02
-4.277420e-02
-3.528460e-02
-2.599400e-02
-8.420860e-02
-7.704500e-02
-6.725310e-02
-5.483280e-02
-3.978430e-02
-9.557450e-02
-8.574650e-02
-7.343660e-02
-5.864460e-02
-4.137070e-02
-8.644790e-02
-7.456730e-02
-6.132460e-02
-4.672000e-02
-3.075330e-02
0.000000e+00
0.000000e+00
0.000000e+00
0.000000e+00
0.000000e+00
-2.599400e-02
-2.039030e-02
-1.532000e-02
-1.078320e-02
-6.779700e-03
-3.978430e-02
-3.116320e-02
-2.342760e-02
-1.657750e-02
-1.061290e-02
-4.137070e-02
-3.231860e-02
-2.432270e-02
-1.738300e-02
-1.149950e-02
-3.075330e-02
-2.385660e-02
-1.800540e-02
-1.319970e-02
-9.439640e-03
0.000000e+00
0.000000e+00
0.000000e+00
0.000000e+00
0.000000e+00
-6.779700e-03
-1.357040e-03
2.548970e-03
4.938320e-03
5.811010e-03
-1.061290e-02
-1.892210e-03
4.439970e-03
8.383660e-03
9.938870e-03
-1.149950e-02
-1.605510e-03
5.673020e-03
1.033600e-02
1.238360e-02
-9.439640e-03
-4.969340e-04
6.248100e-03
1.079540e-02
1.314510e-02
0.000000e+00
0.000000e+00
0.000000e+00
0.000000e+00
0.000000e+00
5.811010e-03
7.013600e-03
8.094300e-03
9.053110e-03
9.890030e-03
9.938870e-03
1.180900e-02
1.350590e-02
1.502960e-02
1.637990e-02
1.238360e-02
1.438640e-02
1.623490e-02
1.792940e-02
1.946960e-02
1.314510e-02
1.474550e-02
1.628130e-02
1.775250e-02
1.915910e-02
0.000000e+00
0.000000e+00
0.000000e+00
0.000000e+00
0.000000e+00
9.890030e-03
1.056920e-02
1.130830e-02
1.210730e-02
1.296610e-02
1.637990e-02
1.762970e-02
1.888880e-02
2.015740e-02
2.143540e-02
1.946960e-02
2.118130e-02
2.274160e-02
2.415050e-02
2.540790e-02
1.915910e-02
2.122420e-02
2.286660e-02
2.408640e-02
2.488350e-02
2.057510e-02
2.104110e-02
2.095190e-02
2.030750e-02
1.910790e-02
2.078850e-02
2.074600e-02
2.040200e-02
1.975650e-02
1.880940e-02
2.103660e-02
2.064930e-02
2.014850e-02
1.953430e-02
1.880660e-02
2.131930e-02
2.075080e-02
2.019130e-02
1.964080e-02
1.909940e-02
2.163650e-02
2.105050e-02
2.053040e-02
2.007620e-02
1.968780e-02
1.910790e-02
1.822720e-02
1.659530e-02
1.421210e-02
1.107780e-02
1.880940e-02
1.787890e-02
1.645460e-02
1.453660e-02
1.212480e-02
1.880660e-02
1.779510e-02
1.656340e-02
1.511140e-02
1.343930e-02
1.909940e-02
1.797580e-02
1.692160e-02
1.593670e-02
1.502120e-02
1.968780e-02
1.842100e-02
1.752920e-02
1.701230e-02
1.687040e-02
1.107780e-02
5.906420e-03
2.913730e-03
2.099670e-03
3.464260e-03
1.212480e-02
6.792650e-03
4.183550e-03
4.297550e-03
7.134630e-03
1.343930e-02
7.919250e-03
5.699810e-03
6.780980e-03
1.116280e-02
1.502120e-02
9.286220e-03
7.462500e-03
9.549970e-03
1.554870e-02
1.687040e-02
1.089360e-02
9.471610e-03
1.260450e-02
2.029230e-02
3.464260e-03
-1.400190e-02
-2.993540e-02
-4.433620e-02
-5.720430e-02
7.134630e-03
-9.364150e-03
-2.414420e-02
-3.720560e-02
-4.854820e-02
1.116280e-02
-3.435750e-03
-1.622760e-02
-2.721280e-02
-3.639140e-02
1.554870e-02
3.783280e-03
-6.185610e-03
-1.435800e-02
-2.073390e-02
2.029230e-02
1.229290e-02
5.981810e-03
1.358990e-03
-1.575540e-03
-5.720430e-02
-6.741180e-02
-7.568830e-02
-8.203360e-02
-8.644790e-02
-4.854820e-02
-5.645490e-02
-6.483980e-02
-7.370290e-02
-8.304430e-02
-3.639140e-02
-4.143060e-02
-4.830220e-02
-5.700620e-02
-6.754270e-02
-2.073390e-02
-2.233890e-02
-2.607540e-02
-3.194360e-02
-3.994330e-02
-1.575540e-03
8.202430e-04
1.840440e-03
1.485040e-03
-2.459550e-04
-8.644790e-02
-7.456730e-02
-6.132460e-02
-4.672000e-02
-3.075330e-02
-8.304430e-02
-7.154240e-02
-5.818430e-02
-4.297000e-02
-2.589950e-02
-6.754270e-02
-5.783960e-02
-4.632260e-02
-3.299180e-02
-1.784700e-02
-3.994330e-02
-3.345900e-02
-2.573970e-02
-1.678530e-02
-6.595880e-03
-2.459550e-04
1.599410e-03
3.564510e-03
5.649350e-03
7.853910e-03
-3.075330e-02
-2.385660e-02
-1.800540e-02
-1.319970e-02
-9.439640e-03
-2.589950e-02
-1.897840e-02
-1.384790e-02
-1.050790e-02
-8.958390e-03
-1.784700e-02
-1.159010e-02
-7.677610e-03
-6.109650e-03
-6.886180e-03
-6.595880e-03
-1.691520e-03
5.054010e-04
-5.099810e-06
-3.223030e-03
7.853910e-03
1.071720e-02
1.070120e-02
7.805800e-03
2.031070e-03
-9.439640e-03
-4.969340e-04
6.248100e-03
1.079540e-02
1.314510e-02
-8.958390e-03
1.068610e-03
8.338270e-03
1.285060e-02
1.460560e-02
-6.886180e-03
3.297850e-03
1.052000e-02
1.478010e-02
1.607840e-02
-3.223030e-03
6.190810e-03
1.279320e-02
1.658410e-02
1.756350e-02
2.031070e-03
9.747470e-03
1.515790e-02
1.826240e-02
1.906090e-02
1.314510e-02
1.474550e-02
1.628130e-02
1.775250e-02
1.915910e-02
1.460560e-02
1.548560e-02
1.646390e-02
1.754060e-02
1.871560e-02
1.607840e-02
1.636610e-02
1.687300e-02
1.759920e-02
1.854470e-02
1.756350e-02
1.738700e-02
1.750860e-02
1.792830e-02
1.864610e-02
1.906090e-02
1.854830e-02
1.837060e-02
1.852790e-02
1.902010e-02
1.915910e-02
2.122420e-02
2.286660e-02
2.408640e-02
2.488350e-02
1.871560e-02
2.095390e-02
2.263900e-02
2.377100e-02
2.434980e-02
1.854470e-02
2.091930e-02
2.262030e-02
2.364780e-02
2.400170e-02
1.864610e-02
2.112040e-02
2.281060e-02
2.371690e-02
2.383910e-02
1.902010e-02
2.155720e-02
2.320980e-02
2.397820e-02
2.386210e-02
2.163650e-02
2.105050e-02
2.053040e-02
2.007620e-02
1.968780e-02
2.197900e-02
2.141480e-02
2.097650e-02
2.066420e-02
2.047780e-02
2.233590e-02
2.180940e-02
2.144930e-02
2.125550e-02
2.122800e-02
2.270730e-02
2.223460e-02
2.194880e-02
2.185000e-02
2.193820e-02
2.309330e-02
2.269010e-02
2.247500e-02
2.244780e-02
2.260850e-02
1.968780e-02
1.842100e-02
1.752920e-02
1.701230e-02
1.687040e-02
2.047780e-02
1.908360e-02
1.832380e-02
1.819850e-02
1.870760e-02
2.122800e-02
1.978360e-02
1.914980e-02
1.932670e-02
2.031420e-02
2.193820e-02
2.052090e-02
2.000710e-02
2.039680e-02
2.169010e-02
2.260850e-02
2.129560e-02
2.089570e-02
2.140890e-02
2.283530e-02
1.687040e-02
1.089360e-02
9.471610e-03
1.260450e-02
2.029230e-02
1.870760e-02
1.319700e-02
1.207410e-02
1.533910e-02
2.299180e-02
2.031420e-02
1.560740e-02
1.483050e-02
1.798330e-02
2.506610e-02
2.169010e-02
1.812480e-02
1.774060e-02
2.053730e-02
2.651510e-02
2.283530e-02
2.074920e-02
2.080450e-02
2.300110e-02
2.733900e-02
2.029230e-02
1.229290e-02
5.981810e-03
1.358990e-03
-1.575540e-03
2.299180e-02
1.823590e-02
1.516840e-02
1.378940e-02
1.409880e-02
2.506610e-02
2.308100e-02
2.256340e-02
2.351320e-02
2.593050e-02
2.651510e-02
2.682820e-02
2.816660e-02
3.053040e-02
3.391960e-02
2.733900e-02
2.947750e-02
3.197820e-02
3.484100e-02
3.806600e-02
-1.575540e-03
8.202430e-04
1.840440e-03
1.485040e-03
-2.459550e-04
1.409880e-02
2.193020e-02
2.880910e-02
3.473550e-02
3.970940e-02
2.593050e-02
3.737650e-02
4.799650e-02
5.779070e-02
6.675890e-02
3.391960e-02
4.715900e-02
5.940270e-02
7.065060e-02
8.090270e-02
3.806600e-02
5.127790e-02
6.302760e-02
7.331520e-02
8.214070e-02
-2.459550e-04
1.599410e-03
3.564510e-03
5.649350e-03
7.853910e-03
3.970940e-02
3.154830e-02
2.524770e-02
2.080770e-02
1.822810e-02
6.675890e-02
5.331840e-02
4.237810e-02
3.393800e-02
2.799810e-02
8.090270e-02
6.690960e-02
5.495550e-02
4.504040e-02
3.716410e-02
8.214070e-02
7.232210e-02
6.298010e-02
5.411480e-02
4.572600e-02
7.853910e-03
1.071720e-02
1.070120e-02
7.805800e-03
2.031070e-03
1.822810e-02
1.910550e-02
1.769850e-02
1.400700e-02
8.031010e-03
2.799810e-02
2.667200e-02
2.378080e-02
1.932440e-02
1.330280e-02
3.716410e-02
3.341660e-02
2.894790e-02
2.375790e-02
1.784660e-02
4.572600e-02
3.933940e-02
3.319990e-02
2.730750e-02
2.166220e-02
2.031070e-03
9.747470e-03
1.515790e-02
1.826240e-02
1.906090e-02
8.031010e-03
1.338610e-02
1.719030e-02
1.944370e-02
2.014620e-02
1.330280e-02
1.671410e-02
1.916990e-02
2.067030e-02
2.121530e-02
1.784660e-02
1.973140e-02
2.109670e-02
2.194230e-02
2.226830e-02
2.166220e-02
2.243810e-02
2.297060e-02
2.325960e-02
2.330520e-02
1.906090e-02
1.854830e-02
1.837060e-02
1.852790e-02
1.902010e-02
2.014620e-02
1.964480e-02
1.939180e-02
1.938740e-02
1.963150e-02
2.121530e-02
2.071640e-02
2.039420e-02
2.024870e-02
2.028000e-02
2.226830e-02
2.176310e-02
2.137750e-02
2.111170e-02
2.096550e-02
2.330520e-02
2.278490e-02
2.234200e-02
2.197630e-02
2.168800e-02
1.902010e-02
2.155720e-02
2.320980e-02
2.397820e-02
2.386210e-02
1.963150e-02
2.187200e-02
2.333620e-02
2.402400e-02
2.393560e-02
2.028000e-02
2.221990e-02
2.349020e-02
2.409090e-02
2.402200e-02
2.096550e-02
2.260090e-02
2.367200e-02
2.417880e-02
2.412120e-02
2.168800e-02
2.301490e-02
2.388150e-02
2.428760e-02
2.423330e-02
2.309330e-02
2.269010e-02
2.247500e-02
2.244780e-02
2.260850e-02
2.348320e-02
2.315300e-02
2.300410e-02
2.303670e-02
2.325060e-02
2.386930e-02
2.360680e-02
2.351660e-02
2.359890e-02
2.385360e-02
2.425160e-02
2.405150e-02
2.401250e-02
2.413450e-02
2.441760e-02
2.463000e-02
2.448720e-02
2.449170e-02
2.464340e-02
2.494250e-02
2.260850e-02
2.129560e-02
2.089570e-02
2.140890e-02
2.283530e-02
2.325060e-02
2.218820e-02
2.191530e-02
2.243180e-02
2.373790e-02
2.385360e-02
2.304930e-02
2.290300e-02
2.341490e-02
2.458480e-02
2.441760e-02
2.387880e-02
2.385900e-02
2.435800e-02
2.537600e-02
2.494250e-02
2.467690e-02
2.478320e-02
2.526130e-02
2.611140e-02
2.283530e-02
2.074920e-02
2.080450e-02
2.300110e-02
2.733900e-02
2.373790e-02
2.269450e-02
2.312610e-02
2.503270e-02
2.841420e-02
2.458480e-02
2.435670e-02
2.507940e-02
2.675310e-02
2.937780e-02
2.537600e-02
2.573550e-02
2.666440e-02
2.816250e-02
3.022990e-02
2.611140e-02
2.683110e-02
2.788100e-02
2.926080e-02
3.097060e-02
2.733900e-02
2.947750e-02
3.197820e-02
3.484100e-02
3.806600e-02
2.841420e-02
3.143520e-02
3.456960e-02
3.781740e-02
4.117870e-02
2.937780e-02
3.292130e-02
3.638170e-02
3.975920e-02
4.305360e-02
3.022990e-02
3.393580e-02
3.741460e-02
4.066630e-02
4.369090e-02
3.097060e-02
3.447880e-02
3.766810e-02
4.053870e-02
4.309040e-02
3.806600e-02
5.127790e-02
6.302760e-02
7.331520e-02
8.214070e-02
4.117870e-02
5.257430e-02
6.274870e-02
7.170180e-02
7.943370e-02
4.305360e-02
5.252380e-02
6.096410e-02
6.837470e-02
7.475540e-02
4.369090e-02
5.112630e-02
5.767400e-02
6.333380e-02
6.810590e-02
4.309040e-02
4.838200e-02
5.287830e-02
5.657930e-02
5.948500e-02
8.214070e-02
7.232210e-02
6.298010e-02
5.411480e-02
4.572600e-02
7.943370e-02
7.035300e-02
6.174010e-02
5.359510e-02
4.591800e-02
7.475540e-02
6.706720e-02
5.976560e-02
5.285070e-02
4.632250e-02
6.810590e-02
6.246450e-02
5.705640e-02
5.188140e-02
4.693950e-02
5.948500e-02
5.654510e-02
5.361250e-02
5.068720e-02
4.776910e-02
4.572600e-02
3.933940e-02
3.319990e-02
2.730750e-02
2.166220e-02
4.591800e-02
3.993310e-02
3.431520e-02
2.906440e-02
2.418050e-02
4.632250e-02
4.066210e-02
3.544900e-02
3.068310e-02
2.636450e-02
4.693950e-02
4.152640e-02
3.660110e-02
3.216370e-02
2.821410e-02
4.776910e-02
4.252600e-02
3.777170e-02
3.350620e-02
2.972950e-02
2.166220e-02
2.243810e-02
2.297060e-02
2.325960e-02
2.330520e-02
2.418050e-02
2.449060e-02
2.462240e-02
2.457570e-02
2.435060e-02
2.636450e-02
2.625340e-02
2.603390e-02
2.570600e-02
2.526970e-02
2.821410e-02
2.772640e-02
2.720530e-02
2.665060e-02
2.606250e-02
2.972950e-02
2.890980e-02
2.813640e-02
2.740950e-02
2.672890e-02
2.330520e-02
2.278490e-02
2.234200e-02
2.197630e-02
2.168800e-02
2.435060e-02
2.373090e-02
2.318580e-02
2.271540e-02
2.231970e-02
2.526970e-02
2.457480e-02
2.395390e-02
2.340730e-02
2.293480e-02
2.606250e-02
2.531660e-02
2.464650e-02
2.405210e-02
2.353350e-02
2.672890e-02
2.595640e-02
2.526330e-02
2.464980e-02
2.411570e-02
2.168800e-02
2.301490e-02
2.388150e-02
2.428760e-02
2.423330e-02
2.231970e-02
2.345290e-02
2.417120e-02
2.447440e-02
2.436260e-02
2.293480e-02
2.387920e-02
2.445280e-02
2.465570e-02
2.448780e-02
2.353350e-02
2.429380e-02
2.472640e-02
2.483150e-02
2.460890e-02
2.411570e-02
2.469660e-02
2.499200e-02
2.500170e-02
2.472590e-02
2.463000e-02
2.448720e-02
2.449170e-02
2.464340e-02
2.494250e-02
2.499690e-02
2.490150e-02
2.494070e-02
2.511450e-02
2.542280e-02
2.534870e-02
2.529840e-02
2.536960e-02
2.556240e-02
2.587680e-02
2.568540e-02
2.567760e-02
2.577830e-02
2.598720e-02
2.630450e-02
2.600690e-02
2.603940e-02
2.616670e-02
2.638890e-02
2.670590e-02
2.494250e-02
2.467690e-02
2.478320e-02
2.526130e-02
2.611140e-02
2.542280e-02
2.533970e-02
2.554120e-02
2.602730e-02
2.679790e-02
2.587680e-02
2.594220e-02
2.622120e-02
2.671400e-02
2.742050e-02
2.630450e-02
2.648420e-02
2.682310e-02
2.732150e-02
2.797920e-02
2.670590e-02
2.696570e-02
2.734700e-02
2.784980e-02
2.847400e-02
2.611140e-02
2.683110e-02
2.788100e-02
2.926080e-02
3.097060e-02
2.679790e-02
2.772590e-02
2.884810e-02
3.016420e-02
3.167440e-02
2.742050e-02
2.848010e-02
2.963580e-02
3.088760e-02
3.223540e-02
2.797920e-02
2.909360e-02
3.024410e-02
3.143080e-02
3.265360e-02
2.847400e-02
2.956650e-02
3.067310e-02
3.179400e-02
3.292910e-02
3.097060e-02
3.447880e-02
3.766810e-02
4.053870e-02
4.309040e-02
3.167440e-02
3.486510e-02
3.773810e-02
4.029340e-02
4.253100e-02
3.223540e-02
3.508680e-02
3.764560e-02
3.991180e-02
4.188540e-02
3.265360e-02
3.514380e-02
3.739040e-02
3.939360e-02
4.115330e-02
3.292910e-02
3.503610e-02
3.697270e-02
3.873900e-02
4.033500e-02
4.309040e-02
4.838200e-02
5.287830e-02
5.657930e-02
5.948500e-02
4.253100e-02
4.666160e-02
5.022340e-02
5.321640e-02
5.564050e-02
4.188540e-02
4.509920e-02
4.790120e-02
5.029140e-02
5.226980e-02
4.115330e-02
4.369460e-02
4.591160e-02
4.780430e-02
4.937280e-02
4.033500e-02
4.244790e-02
4.425460e-02
4.575510e-02
4.694950e-02
5.948500e-02
5.654510e-02
5.361250e-02
5.068720e-02
4.776910e-02
5.564050e-02
5.345230e-02
5.111600e-02
4.863140e-02
4.599880e-02
5.226980e-02
5.065040e-02
4.880450e-02
4.673210e-02
4.443320e-02
4.937280e-02
4.813930e-02
4.667810e-02
4.498920e-02
4.307250e-02
4.694950e-02
4.591910e-02
4.473690e-02
4.340270e-02
4.191670e-02
4.776910e-02
4.252600e-02
3.777170e-02
3.350620e-02
2.972950e-02
4.599880e-02
4.155070e-02
3.755150e-02
3.400130e-02
3.090010e-02
4.443320e-02
4.073280e-02
3.741080e-02
3.446720e-02
3.190220e-02
4.307250e-02
4.007220e-02
3.734940e-02
3.490400e-02
3.273600e-02
4.191670e-02
3.956910e-02
3.736740e-02
3.531150e-02
3.340150e-02
2.972950e-02
2.890980e-02
2.813640e-02
2.740950e-02
2.672890e-02
3.090010e-02
2.991560e-02
2.898280e-02
2.810170e-02
2.727240e-02
3.190220e-02
3.074950e-02
2.967030e-02
2.866460e-02
2.773240e-02
3.273600e-02
3.141170e-02
3.019900e-02
2.909800e-02
2.810870e-02
3.340150e-02
3.190210e-02
3.056890e-02
2.940200e-02
2.840140e-02
2.672890e-02
2.595640e-02
2.526330e-02
2.464980e-02
2.411570e-02
2.727240e-02
2.654320e-02
2.588640e-02
2.530210e-02
2.479030e-02
2.773240e-02
2.705200e-02
2.643510e-02
2.588160e-02
2.539160e-02
2.810870e-02
2.748280e-02
2.690930e-02
2.638820e-02
2.591960e-02
2.840140e-02
2.783560e-02
2.730910e-02
2.682200e-02
2.637420e-02
2.411570e-02
2.469660e-02
2.499200e-02
2.500170e-02
2.472590e-02
2.479030e-02
2.508290e-02
2.519850e-02
2.513730e-02
2.489910e-02
2.539160e-02
2.542880e-02
2.538820e-02
2.527010e-02
2.507420e-02
2.591960e-02
2.573420e-02
2.556110e-02
2.540010e-02
2.525120e-02
2.637420e-02
2.599930e-02
2.571700e-02
2.552730e-02
2.543010e-02
2.600690e-02
2.603940e-02
2.616670e-02
2.638890e-02
2.670590e-02
2.630990e-02
2.637800e-02
2.652850e-02
2.676150e-02
2.707700e-02
2.659390e-02
2.669400e-02
2.686470e-02
2.710610e-02
2.741820e-02
2.685910e-02
2.698730e-02
2.717510e-02
2.742260e-02
2.772960e-02
2.710540e-02
2.725810e-02
2.745990e-02
2.771100e-02
2.801120e-02
2.670590e-02
2.696570e-02
2.734700e-02
2.784980e-02
2.847400e-02
2.707700e-02
2.738180e-02
2.778810e-02
2.829570e-02
2.890470e-02
2.741820e-02
2.775580e-02
2.817700e-02
2.868200e-02
2.927070e-02
2.772960e-02
2.808750e-02
2.851390e-02
2.900870e-02
2.957210e-02
2.801120e-02
2.837710e-02
2.879860e-02
2.927590e-02
2.980880e-02
2.847400e-02
2.956650e-02
3.067310e-02
3.179400e-02
3.292910e-02
2.890470e-02
2.994270e-02
3.098630e-02
3.203550e-02
3.309030e-02
2.927070e-02
3.025080e-02
3.122880e-02
3.220450e-02
3.317800e-02
2.957210e-02
3.049090e-02
3.140050e-02
3.230090e-02
3.319210e-02
2.980880e-02
3.066290e-02
3.150160e-02
3.232480e-02
3.313270e-02
3.292910e-02
3.503610e-02
3.697270e-02
3.873900e-02
4.033500e-02
3.309030e-02
3.494340e-02
3.664520e-02
3.819560e-02
3.959460e-02
3.317800e-02
3.480230e-02
3.629190e-02
3.764670e-02
3.886680e-02
3.319210e-02
3.461270e-02
3.591280e-02
3.709250e-02
3.815170e-02
3.313270e-02
3.437470e-02
3.550810e-02
3.653290e-02
3.744910e-02
4.033500e-02
4.244790e-02
4.425460e-02
4.575510e-02
4.694950e-02
3.959460e-02
4.136740e-02
4.285670e-02
4.406250e-02
4.498480e-02
3.886680e-02
4.032940e-02
4.153960e-02
4.249750e-02
4.320310e-02
3.815170e-02
3.933390e-02
4.030350e-02
4.106030e-02
4.160440e-02
3.744910e-02
3.838090e-02
3.914810e-02
3.975070e-02
4.018860e-02
4.694950e-02
4.591910e-02
4.473690e-02
4.340270e-02
4.191670e-02
4.498480e-02
4.407010e-02
4.302570e-02
4.185180e-02
4.054840e-02
4.320310e-02
4.243610e-02
4.155330e-02
4.055460e-02
3.944010e-02
4.160440e-02
4.101740e-02
4.031960e-02
3.951100e-02
3.859170e-02
4.018860e-02
3.981370e-02
3.932460e-02
3.872110e-02
3.800340e-02
4.191670e-02
3.956910e-02
3.736740e-02
3.531150e-02
3.340150e-02
4.054840e-02
3.854940e-02
3.668460e-02
3.495410e-02
3.335790e-02
3.944010e-02
3.773840e-02
3.615120e-02
3.467850e-02
3.332030e-02
3.859170e-02
3.713620e-02
3.576710e-02
3.448460e-02
3.328870e-02
3.800340e-02
3.674270e-02
3.553240e-02
3.437250e-02
3.326290e-02
3.340150e-02
3.190210e-02
3.056890e-02
2.940200e-02
2.840140e-02
3.335790e-02
3.202690e-02
3.081890e-02
2.973380e-02
2.877170e-02
3.332030e-02
3.212110e-02
3.101550e-02
3.000370e-02
2.908550e-02
3.328870e-02
3.218450e-02
3.115880e-02
3.021170e-02
2.934300e-02
3.326290e-02
3.221720e-02
3.124880e-02
3.035780e-02
2.954410e-02
2.840140e-02
2.783560e-02
2.730910e-02
2.682200e-02
2.637420e-02
2.877170e-02
2.818670e-02
2.764360e-02
2.714260e-02
2.668350e-02
2.908550e-02
2.848510e-02
2.792800e-02
2.741440e-02
2.694410e-02
2.934300e-02
2.873090e-02
2.816240e-02
2.763750e-02
2.715620e-02
2.954410e-02
2.892400e-02
2.834660e-02
2.781180e-02
2.731960e-02
2.637420e-02
2.599930e-02
2.571700e-02
2.552730e-02
2.543010e-02
2.668350e-02
2.628980e-02
2.597630e-02
2.574280e-02
2.558940e-02
2.694410e-02
2.654430e-02
2.621000e-02
2.594100e-02
2.573740e-02
2.715620e-02
2.676290e-02
2.641810e-02
2.612180e-02
2.587410e-02
2.731960e-02
2.694540e-02
2.660060e-02
2.628530e-02
2.599950e-02
2.710540e-02
2.725810e-02
2.745990e-02
2.771100e-02
2.801120e-02
2.733260e-02
2.750000e-02
2.770960e-02
2.796140e-02
2.825550e-02
2.754220e-02
2.772160e-02
2.793650e-02
2.818700e-02
2.847290e-02
2.773410e-02
2.792290e-02
2.814080e-02
2.838770e-02
2.866360e-02