<?xml version="1.0"?>
<VTKFile type="UnstructuredGrid" version="0.1" byte_order="LittleEndian" compressor="vtkZLibDataCompressor">
<UnstructuredGrid>
<Piece NumberOfPoints="2500" NumberOfCells="1600">
<Points>
<DataArray type="Float32" NumberOfComponents="3" format="ascii">
-3.630000e+00 0.000000e+00 0.000000e+00
-3.448500e+00 0.000000e+00 0.000000e+00
-3.267000e+00 0.000000e+00 0.000000e+00
-3.085500e+00 0.000000e+00 0.000000e+00
-2.904000e+00 0.000000e+00 0.000000e+00
-3.630000e+00 1.282500e-01 0.000000e+00
-3.448500e+00 1.282500e-01 0.000000e+00
-3.267000e+00 1.282500e-01 0.000000e+00
-3.085500e+00 1.282500e-01 0.000000e+00
-2.904000e+00 1.282500e-01 0.000000e+00
-3.630000e+00 2.565000e-01 0.000000e+00
-3.448500e+00 2.565000e-01 0.000000e+00
-3.267000e+00 2.565000e-01 0.000000e+00
-3.085500e+00 2.565000e-01 0.000000e+00
-2.904000e+00 2.565000e-01 0.000000e+00
-3.630000e+00 3.847500e-01 0.000000e+00
-3.448500e+00 3.847500e-01 0.000000e+00
-3.267000e+00 3.847500e-01 0.000000e+00
-3.085500e+00 3.847500e-01 0.000000e+00
-2.904000e+00 3.847500e-01 0.000000e+00
-3.630000e+00 5.130000e-01 0.000000e+00
-3.448500e+00 5.130000e-01 0.000000e+00
-3.267000e+00 5.130000e-01 0.000000e+00
-3.085500e+00 5.130000e-01 0.000000e+00
-2.904000e+00 5.130000e-01 0.000000e+00
-2.904000e+00 0.000000e+00 0.000000e+00
-2.722500e+00 0.000000e+00 0.000000e+00
-2.541000e+00 0.000000e+00 0.000000e+00
-2.359500e+00 0.000000e+00 0.000000e+00
-2.178000e+00 0.000000e+00 0.000000e+00
-2.904000e+00 1.282500e-01 0.000000e+00
-2.722500e+00 1.282500e-01 0.000000e+00
-2.541000e+00 1.282500e-01 0.000000e+00
-2.359500e+00 1.282500e-01 0.000000e+00
-2.178000e+00 1.282500e-01 0.000000e+00
-2.904000e+00 2.565000e-01 0.000000e+00
-2.722500e+00 2.565000e-01 0.000000e+00
-2.541000e+00 2.565000e-01 0.000000e+00
-2.359500e+00 2.565000e-01 0.000000e+00
-2.178000e+00 2.565000e-01 0.000000e+00
-2.904000e+00 3.847500e-01 0.000000e+00
-2.722500e+00 3.847500e-01 0.000000e+00
-2.541000e+00 3.847500e-01 0.000000e+00
-2.359500e+00 3.847500e-01 0.000000e+00
-2.178000e+00 3.847500e-01 0.000000e+00
-2.904000e+00 5.130000e-01 0.000000e+00
-2.722500e+00 5.130000e-01 0.000000e+00
-2.541000e+00 5.130000e-01 0.000000e+00
-2.359500e+00 5.130000e-01 0.000000e+00
-2.178000e+00 5.130000e-01 0.000000e+00
-2.178000e+00 0.000000e+00 0.000000e+00
-1.996500e+00 0.000000e+00 0.000000e+00
-1.815000e+00 0.000000e+00 0.000000e+00
-1.633500e+00 0.000000e+00 0.000000e+00
-1.452000e+00 0.000000e+00 0.000000e+00
-2.178000e+00 1.282500e-01 0.000000e+00
-1.996500e+00 1.282500e-01 0.000000e+00
-1.815000e+00 1.282500e-01 0.000000e+00
-1.633500e+00 1.282500e-01 0.000000e+00
-1.452000e+00 1.282500e-01 0.000000e+00
-2.178000e+00 2.565000e-01 0.000000e+00
-1.996500e+00 2.565000e-01 0.000000e+00
-1.815000e+00 2.565000e-01 0.000000e+00
-1.633500e+00 2.565000e-01 0.000000e+00
-1.452000e+00 2.565000e-01 0.000000e+00
-2.178000e+00 3.847500e-01 0.000000e+00
-1.996500e+00 3.847500e-01 0.000000e+00
-1.815000e+00 3.847500e-01 0.000000e+00
-1.633500e+00 3.847500e-01 0.000000e+00
-1.452000e+00 3.847500e-01 0.000000e+00
-2.178000e+00 5.130000e-01 0.000000e+00
-1.996500e+00 5.130000e-01 0.000000e+00
-1.815000e+00 5.130000e-01 0.000000e+00
-1.633500e+00 5.130000e-01 0.000000e+00
-1.452000e+00 5.130000e-01 0.000000e+00
-1.452000e+00 0.000000e+00 0.000000e+00
-1.270500e+00 0.000000e+00 0.000000e+00
-1.089000e+00 0.000000e+00 0.000000e+00
-9.075000e-01 0.000000e+00 0.000000e+00
-7.260000e-01 0.000000e+00 0.000000e+00
-1.452000e+00 1.282500e-01 0.000000e+00
-1.270500e+00 1.282500e-01 0.000000e+00
-1.089000e+00 1.282500e-01 0.000000e+00
-9.075000e-01 1.282500e-01 0.000000e+00
-7.260000e-01 1.282500e-01 0.000000e+00
-1.452000e+00 2.565000e-01 0.000000e+00
-1.270500e+00 2.565000e-01 0.000000e+00
-1.089000e+00 2.565000e-01 0.000000e+00
-9.075000e-01 2.565000e-01 0.000000e+00
-7.260000e-01 2.565000e-01 0.000000e+00
-1.452000e+00 3.847500e-01 0.000000e+00
-1.270500e+00 3.847500e-01 0.000000e+00
-1.089000e+00 3.847500e-01 0.000000e+00
-9.075000e-01 3.847500e-01 0.000000e+00
-7.260000e-01 3.847500e-01 0.000000e+00
-1.452000e+00 5.130000e-01 0.000000e+00
-1.270500e+00 5.130000e-01 0.000000e+00
-1.089000e+00 5.130000e-01 0.000000e+00
-9.075000e-01 5.130000e-01 0.000000e+00
-7.260000e-01 5.130000e-01 0.000000e+00
-7.260000e-01 0.000000e+00 0.000000e+00
-5.445000e-01 0.000000e+00 0.000000e+00
-3.630000e-01 0.000000e+00 0.000000e+00
-1.815000e-01 0.000000e+00 0.000000e+00
0.000000e+00 0.000000e+00 0.000000e+00
-7.260000e-01 1.282500e-01 0.000000e+00
-5.445000e-01 1.282500e-01 0.000000e+00
-3.630000e-01 1.282500e-01 0.000000e+00
-1.815000e-01 1.282500e-01 0.000000e+00
0.000000e+00 1.282500e-01 0.000000e+00
-7.260000e-01 2.565000e-01 0.000000e+00
-5.445000e-01 2.565000e-01 0.000000e+00
-3.630000e-01 2.565000e-01 0.000000e+00
-1.815000e-01 2.565000e-01 0.000000e+00
0.000000e+00 2.565000e-01 0.000000e+00
-7.260000e-01 3.847500e-01 0.000000e+00
-5.445000e-01 3.847500e-01 0.000000e+00
-3.630000e-01 3.847500e-01 0.000000e+00
-1.815000e-01 3.847500e-01 0.000000e+00
0.000000e+00 3.847500e-01 0.000000e+00
-7.260000e-01 5.130000e-01 0.000000e+00
-5.445000e-01 5.130000e-01 0.000000e+00
-3.630000e-01 5.130000e-01 0.000000e+00
-1.815000e-01 5.130000e-01 0.000000e+00
0.000000e+00 5.130000e-01 0.000000e+00
0.000000e+00 0.000000e+00 0.000000e+00
1.815000e-01 0.000000e+00 0.000000e+00
3.630000e-01 0.000000e+00 0.000000e+00
5.445000e-01 0.000000e+00 0.000000e+00
7.260000e-01 0.000000e+00 0.000000e+00
0.000000e+00 1.282500e-01 0.000000e+00
1.815000e-01 1.282500e-01 0.000000e+00
3.630000e-01 1.282500e-01 0.000000e+00
5.445000e-01 1.282500e-01 0.000000e+00
7.260000e-01 1.282500e-01 0.000000e+00
0.000000e+00 2.565000e-01 0.000000e+00
1.815000e-01 2.565000e-01 0.000000e+00
3.630000e-01 2.565000e-01 0.000000e+00
5.445000e-01 2.565000e-01 0.000000e+00
7.260000e-01 2.565000e-01 0.000000e+00
0.000000e+00 3.847500e-01 0.000000e+00
1.815000e-01 3.847500e-01 0.000000e+00
3.630000e-01 3.847500e-01 0.000000e+00
5.445000e-01 3.847500e-01 0.000000e+00
7.260000e-01 3.847500e-01 0.000000e+00
0.000000e+00 5.130000e-01 0.000000e+00
1.815000e-01 5.130000e-01 0.000000e+00
3.630000e-01 5.130000e-01 0.000000e+00
5.445000e-01 5.130000e-01 0.000000e+00
7.260000e-01 5.130000e-01 0.000000e+00
7.260000e-01 0.000000e+00 0.000000e+00
9.075000e-01 0.000000e+00 0.000000e+00
1.089000e+00 0.000000e+00 0.000000e+00
1.270500e+00 0.000000e+00 0.000000e+00
1.452000e+00 0.000000e+00 0.000000e+00
7.260000e-01 1.282500e-01 0.000000e+00
9.075000e-01 1.282500e-01 0.000000e+00
1.089000e+00 1.282500e-01 0.000000e+00
1.270500e+00 1.282500e-01 0.000000e+00
1.452000e+00 1.282500e-01 0.000000e+00
7.260000e-01 2.565000e-01 0.000000e+00
9.075000e-01 2.565000e-01 0.000000e+00
1.089000e+00 2.565000e-01 0.000000e+00
1.270500e+00 2.565000e-01 0.000000e+00
1.452000e+00 2.565000e-01 0.000000e+00
7.260000e-01 3.847500e-01 0.000000e+00
9.075000e-01 3.847500e-01 0.000000e+00
1.089000e+00 3.847500e-01 0.000000e+00
1.270500e+00 3.847500e-01 0.000000e+00
1.452000e+00 3.847500e-01 0.000000e+00
7.260000e-01 5.130000e-01 0.000000e+00
9.075000e-01 5.130000e-01 0.000000e+00
1.089000e+00 5.130000e-01 0.000000e+00
1.270500e+00 5.130000e-01 0.000000e+00
1.452000e+00 5.130000e-01 0.000000e+00
1.452000e+00 0.000000e+00 0.000000e+00
1.633500e+00 0.000000e+00 0.000000e+00
1.815000e+00 0.000000e+00 0.000000e+00
1.996500e+00 0.000000e+00 0.000000e+00
2.178000e+00 0.000000e+00 0.000000e+00
1.452000e+00 1.282500e-01 0.000000e+00
1.633500e+00 1.282500e-01 0.000000e+00
1.815000e+00 1.282500e-01 0.000000e+00
1.996500e+00 1.282500e-01 0.000000e+00
2.178000e+00 1.282500e-01 0.000000e+00
1.452000e+00 2.565000e-01 0.000000e+00
1.633500e+00 2.565000e-01 0.000000e+00
1.815000e+00 2.565000e-01 0.000000e+00
1.996500e+00 2.565000e-01 0.000000e+00
2.178000e+00 2.565000e-01 0.000000e+00
1.452000e+00 3.847500e-01 0.000000e+00
1.633500e+00 3.847500e-01 0.000000e+00
1.815000e+00 3.847500e-01 0.000000e+00
1.996500e+00 3.847500e-01 0.000000e+00
2.178000e+00 3.847500e-01 0.000000e+00
1.452000e+00 5.130000e-01 0.000000e+00
1.633500e+00 5.130000e-01 0.000000e+00
1.815000e+00 5.130000e-01 0.000000e+00
1.996500e+00 5.130000e-01 0.000000e+00
2.178000e+00 5.130000e-01 0.000000e+00
2.178000e+00 0.000000e+00 0.000000e+00
2.359500e+00 0.000000e+00 0.000000e+00
2.541000e+00 0.000000e+00 0.000000e+00
2.722500e+00 0.000000e+00 0.000000e+00
2.904000e+00 0.000000e+00 0.000000e+00
2.178000e+00 1.282500e-01 0.000000e+00
2.359500e+00 1.282500e-01 0.000000e+00
2.541000e+00 1.282500e-01 0.000000e+00
2.722500e+00 1.282500e-01 0.000000e+00
2.904000e+00 1.282500e-01 0.000000e+00
2.178000e+00 2.565000e-01 0.000000e+00
2.359500e+00 2.565000e-01 0.000000e+00
2.541000e+00 2.565000e-01 0.000000e+00
2.722500e+00 2.565000e-01 0.000000e+00
2.904000e+00 2.565000e-01 0.000000e+00
2.178000e+00 3.847500e-01 0.000000e+00
2.359500e+00 3.847500e-01 0.000000e+00
2.541000e+00 3.847500e-01 0.000000e+00
2.722500e+00 3.847500e-01 0.000000e+00
2.904000e+00 3.847500e-01 0.000000e+00
2.178000e+00 5.130000e-01 0.000000e+00
2.359500e+00 5.130000e-01 0.000000e+00
2.541000e+00 5.130000e-01 0.000000e+00
2.722500e+00 5.130000e-01 0.000000e+00
2.904000e+00 5.130000e-01 0.000000e+00
2.904000e+00 0.000000e+00 0.000000e+00
3.085500e+00 0.000000e+00 0.000000e+00
3.267000e+00 0.000000e+00 0.000000e+00
3.448500e+00 0.000000e+00 0.000000e+00
3.630000e+00 0.000000e+00 0.000000e+00
2.904000e+00 1.282500e-01 0.000000e+00
3.085500e+00 1.282500e-01 0.000000e+00
3.267000e+00 1.282500e-01 0.000000e+00
3.448500e+00 1.282500e-01 0.000000e+00
3.630000e+00 1.282500e-01 0.000000e+00
2.904000e+00 2.565000e-01 0.000000e+00
3.085500e+00 2.565000e-01 0.000000e+00
3.267000e+00 2.565000e-01 0.000000e+00
3.448500e+00 2.565000e-01 0.000000e+00
3.630000e+00 2.565000e-01 0.000000e+00
2.904000e+00 3.847500e-01 0.000000e+00
3.085500e+00 3.847500e-01 0.000000e+00
3.267000e+00 3.847500e-01 0.000000e+00
3.448500e+00 3.847500e-01 0.000000e+00
3.630000e+00 3.847500e-01 0.000000e+00
2.904000e+00 5.130000e-01 0.000000e+00
[...]
<PointData>
<DataArray type="Float32" Name="V1" format="ascii">
0.000000e+00
0.000000e+00
0.000000e+00
0.000000e+00
0.000000e+00
1.264110e-02
1.103480e-02
9.648940e-03
8.483460e-03
7.538390e-03
2.028400e-02
1.822830e-02
1.639120e-02
1.477280e-02
1.337300e-02
2.292870e-02
2.158040e-02
2.022680e-02
1.886800e-02
1.750400e-02
2.057510e-02
2.109100e-02
2.115570e-02
2.076910e-02
1.993120e-02
0.000000e+00
0.000000e+00
0.000000e+00
0.000000e+00
0.000000e+00
7.538390e-03
6.473630e-03
5.638370e-03
5.032610e-03
4.656340e-03
1.337300e-02
1.178780e-02
1.050780e-02
9.532930e-03
8.863320e-03
1.750400e-02
1.594250e-02
1.460820e-02
1.350100e-02
1.262090e-02
1.993120e-02
1.893770e-02
1.793960e-02
1.693680e-02
1.592920e-02
0.000000e+00
0.000000e+00
0.000000e+00
0.000000e+00
0.000000e+00
4.656340e-03
4.376220e-03
4.158890e-03
4.004340e-03
3.912570e-03
8.863320e-03
8.340270e-03
7.927670e-03
7.625500e-03
7.433780e-03
1.262090e-02
1.189220e-02
1.130630e-02
1.086350e-02
1.056360e-02
1.592920e-02
1.503190e-02
1.429490e-02
1.371830e-02
1.330210e-02
0.000000e+00
0.000000e+00
0.000000e+00
0.000000e+00
0.000000e+00
3.912570e-03
3.747950e-03
3.828230e-03
4.153410e-03
4.723480e-03
7.433780e-03
7.083070e-03
7.131710e-03
7.579720e-03
8.427070e-03
1.056360e-02
1.000540e-02
9.910450e-03
1.027890e-02
1.111080e-02
1.330210e-02
1.251480e-02
1.216440e-02
1.225100e-02
1.277460e-02
0.000000e+00
0.000000e+00
0.000000e+00
0.000000e+00
0.000000e+00
4.723480e-03
4.559080e-03
4.120700e-03
3.408360e-03
2.422050e-03
8.427070e-03
7.928580e-03
6.934270e-03
5.444120e-03
3.458160e-03
1.111080e-02
1.010850e-02
8.440690e-03
6.107290e-03
3.108330e-03
1.277460e-02
1.109890e-02
8.639960e-03
5.397870e-03
1.372570e-03
0.000000e+00
0.000000e+00
0.000000e+00
0.000000e+00
0.000000e+00
2.422050e-03
1.216740e-03
-1.078220e-03
-4.462830e-03
-8.937080e-03
3.458160e-03
9.508180e-04
-3.115420e-03
-8.740550e-03
-1.592460e-02
3.108330e-03
-7.977610e-04
-6.111600e-03
-1.283320e-02
-2.096250e-02
1.372570e-03
-4.029000e-03
-1.006680e-02
-1.674070e-02
-2.405090e-02
0.000000e+00
0.000000e+00
0.000000e+00
0.000000e+00
0.000000e+00
-8.937080e-03
-9.824550e-03
-1.018460e-02
-1.001730e-02
-9.322550e-03
-1.592460e-02
-1.687530e-02
-1.709180e-02
-1.657400e-02
-1.532190e-02
-2.096250e-02
-2.115230e-02
-2.072140e-02
-1.967010e-02
-1.799820e-02
-2.405090e-02
-2.265540e-02
-2.107360e-02
-1.930560e-02
-1.735120e-02
0.000000e+00
0.000000e+00
0.000000e+00
0.000000e+00
0.000000e+00
-9.322550e-03
-9.146830e-03
-8.079030e-03
-6.119140e-03
-3.267180e-03
-1.532190e-02
-1.486770e-02
-1.299410e-02
-9.701030e-03
-4.988560e-03
-1.799820e-02
-1.716270e-02
-1.474520e-02
-1.074570e-02
-5.164130e-03
-1.735120e-02
-1.603170e-02
-1.333230e-02
-9.253020e-03
-3.793910e-03
0.000000e+00
0.000000e+00
0.000000e+00
0.000000e+00
0.000000e+00
-3.267180e-03
-1.270640e-03
5.073390e-04
2.066770e-03
3.407640e-03
-4.988560e-03
-1.606980e-03
1.385460e-03
3.988760e-03
6.202910e-03
-5.164130e-03
-1.009000e-03
2.634360e-03
5.765970e-03
8.385810e-03
-3.793910e-03
5.232810e-04
4.254050e-03
7.398400e-03
9.956340e-03
0.000000e+00
0.000000e+00
0.000000e+00
0.000000e+00
0.000000e+00
3.407640e-03
4.787860e-03
5.981890e-03
6.989750e-03
7.811420e-03
6.202910e-03
8.513490e-03
1.050300e-02
1.217130e-02
1.351850e-02
8.385810e-03
1.117690e-02
1.356320e-02
1.554470e-02
1.712140e-02
9.956340e-03
1.277810e-02
1.516260e-02
1.710990e-02
1.862000e-02
2.057510e-02
2.109100e-02
2.115570e-02
2.076910e-02
1.993120e-02
2.078850e-02
2.098070e-02
2.100520e-02
2.086180e-02
2.055060e-02
2.103660e-02
2.097140e-02
2.092590e-02
2.090010e-02
2.089390e-02
2.131930e-02
2.106310e-02
2.091800e-02
2.088390e-02
2.096090e-02
2.163650e-02
2.125580e-02
2.098150e-02
2.081340e-02
2.075170e-02
1.993120e-02
1.893770e-02
1.793960e-02
1.693680e-02
1.592920e-02
2.055060e-02
2.006310e-02
1.949370e-02
1.884250e-02
1.810950e-02
2.089390e-02
2.077120e-02
2.052820e-02
2.016480e-02
1.968110e-02
2.096090e-02
2.106210e-02
2.104300e-02
2.090360e-02
2.064400e-02
2.075170e-02
2.093570e-02
2.103810e-02
2.105900e-02
2.099830e-02
1.592920e-02
1.503190e-02
1.429490e-02
1.371830e-02
1.330210e-02
1.810950e-02
1.729330e-02
1.659020e-02
1.600020e-02
1.552340e-02
1.968110e-02
1.897320e-02
1.834370e-02
1.779240e-02
1.731930e-02
2.064400e-02
2.007180e-02
1.955540e-02
1.909470e-02
1.868970e-02
2.099830e-02
2.058900e-02
2.022530e-02
1.990720e-02
1.963470e-02
1.330210e-02
1.251480e-02
1.216440e-02
1.225100e-02
1.277460e-02
1.552340e-02
1.441260e-02
1.381890e-02
1.374220e-02
1.418260e-02
1.731930e-02
1.594630e-02
1.517490e-02
1.500520e-02
1.543730e-02
1.868970e-02
1.711570e-02
1.623240e-02
1.604010e-02
1.653860e-02
1.963470e-02
1.792080e-02
1.699150e-02
1.684680e-02
1.748670e-02
1.277460e-02
1.109890e-02
8.639960e-03
5.397870e-03
1.372570e-03
1.418260e-02
1.183910e-02
8.768710e-03
4.971500e-03
4.474530e-04
1.543730e-02
1.261930e-02
9.170450e-03
5.090620e-03
3.798430e-04
1.653860e-02
1.343970e-02
9.845180e-03
5.755210e-03
1.169740e-03
1.748670e-02
1.430000e-02
1.079290e-02
6.965270e-03
2.817150e-03
1.372570e-03
-4.029000e-03
-1.006680e-02
-1.674070e-02
-2.405090e-02
4.474530e-04
-4.824840e-03
-1.066500e-02
-1.707300e-02
-2.404890e-02
3.798430e-04
-4.119220e-03
-9.384390e-03
-1.541570e-02
-2.221310e-02
1.169740e-03
-1.912120e-03
-6.224960e-03
-1.176880e-02
-1.854350e-02
2.817150e-03
1.796440e-03
-1.186680e-03
-6.132220e-03
-1.304020e-02
-2.405090e-02
-2.265540e-02
-2.107360e-02
-1.930560e-02
-1.735120e-02
-2.404890e-02
-2.219240e-02
-2.030430e-02
-1.838450e-02
-1.643300e-02
-2.221310e-02
-2.026770e-02
-1.825280e-02
-1.616830e-02
-1.401440e-02
-1.854350e-02
-1.688130e-02
-1.491910e-02
-1.265710e-02
-1.009520e-02
-1.304020e-02
-1.203310e-02
-1.030330e-02
-7.850810e-03
-4.675530e-03
-1.735120e-02
-1.603170e-02
-1.333230e-02
-9.253020e-03
-3.793910e-03
-1.643300e-02
-1.578990e-02
-1.340840e-02
-9.288490e-03
-3.430190e-03
-1.401440e-02
-1.398190e-02
-1.202740e-02
-8.150760e-03
-2.352060e-03
-1.009520e-02
-1.060770e-02
-9.189190e-03
-5.839800e-03
-5.594970e-04
-4.675530e-03
-5.667150e-03
-4.893850e-03
-2.355640e-03
1.947480e-03
-3.793910e-03
5.232810e-04
4.254050e-03
7.398400e-03
9.956340e-03
-3.430190e-03
1.285890e-03
5.269530e-03
8.520740e-03
1.103950e-02
-2.352060e-03
2.530860e-03
6.579190e-03
9.792920e-03
1.217210e-02
-5.594970e-04
4.258200e-03
8.183020e-03
1.121490e-02
1.335400e-02
1.947480e-03
6.467920e-03
1.008100e-02
1.278680e-02
1.458530e-02
9.956340e-03
1.277810e-02
1.516260e-02
1.710990e-02
1.862000e-02
1.103950e-02
1.373790e-02
1.605180e-02
1.798110e-02
1.952590e-02
1.217210e-02
1.467570e-02
1.684880e-02
1.869130e-02
2.020330e-02
1.335400e-02
1.559140e-02
1.755360e-02
1.924050e-02
2.065210e-02
1.458530e-02
1.648510e-02
1.816630e-02
1.962870e-02
2.087240e-02
2.163650e-02
2.125580e-02
2.098150e-02
2.081340e-02
2.075170e-02
2.197900e-02
2.160150e-02
2.131310e-02
2.111390e-02
2.100380e-02
2.233590e-02
2.198490e-02
2.170360e-02
2.149200e-02
2.135010e-02
2.270730e-02
2.240630e-02
2.215310e-02
2.194790e-02
2.179050e-02
2.309330e-02
2.286540e-02
2.266150e-02
2.248140e-02
2.232520e-02
2.075170e-02
2.093570e-02
2.103810e-02
2.105900e-02
2.099830e-02
2.100380e-02
2.110060e-02
2.116840e-02
2.120730e-02
2.121730e-02
2.135010e-02
2.136840e-02
2.139590e-02
2.143250e-02
2.147830e-02
2.179050e-02
2.173910e-02
2.172040e-02
2.173460e-02
2.178150e-02
2.232520e-02
2.221270e-02
2.214210e-02
2.211350e-02
2.212680e-02
2.099830e-02
2.058900e-02
2.022530e-02
1.990720e-02
1.963470e-02
2.121730e-02
2.087320e-02
2.060210e-02
2.040400e-02
2.027890e-02
2.147830e-02
2.117340e-02
2.096620e-02
2.085670e-02
2.084490e-02
2.178150e-02
2.148970e-02
2.131760e-02
2.126520e-02
2.133250e-02
2.212680e-02
2.182210e-02
2.165640e-02
2.162960e-02
2.174180e-02
1.963470e-02
1.792080e-02
1.699150e-02
1.684680e-02
1.748670e-02
2.027890e-02
1.855390e-02
1.765980e-02
1.759670e-02
1.836450e-02
2.084490e-02
1.917650e-02
1.834670e-02
1.835550e-02
1.920270e-02
2.133250e-02
1.978860e-02
1.905220e-02
1.912310e-02
2.000140e-02
2.174180e-02
2.039030e-02
1.977620e-02
1.989960e-02
2.076050e-02
1.748670e-02
1.430000e-02
1.079290e-02
6.965270e-03
2.817150e-03
1.836450e-02
1.550320e-02
1.237560e-02
8.981540e-03
5.321120e-03
1.920270e-02
1.685250e-02
1.421750e-02
1.129760e-02
8.092950e-03
2.000140e-02
1.834790e-02
1.631860e-02
1.391350e-02
1.113260e-02
2.076050e-02
1.998930e-02
1.867880e-02
1.682910e-02
1.444020e-02
2.817150e-03
1.796440e-03
-1.186680e-03
-6.132220e-03
-1.304020e-02
5.321120e-03
6.626370e-03
5.308040e-03
1.366120e-03
-5.199380e-03
8.092950e-03
1.131810e-02
1.154680e-02
8.779170e-03
3.015090e-03
1.113260e-02
1.587160e-02
1.752970e-02
1.610690e-02
1.160330e-02
1.444020e-02
2.028700e-02
2.325670e-02
2.334940e-02
2.056510e-02
-1.304020e-02
-1.203310e-02
-1.030330e-02
-7.850810e-03
-4.675530e-03
-5.199380e-03
-5.543180e-03
-4.569970e-03
-2.279760e-03
1.327440e-03
3.015090e-03
1.739440e-03
2.151380e-03
4.250910e-03
8.038040e-03
1.160330e-02
9.814730e-03
9.860710e-03
1.174120e-02
1.545630e-02
2.056510e-02
1.868270e-02
1.855800e-02
2.019120e-02
2.358210e-02
-4.675530e-03
-5.667150e-03
-4.893850e-03
-2.355640e-03
1.947480e-03
1.327440e-03
1.852040e-04
4.649660e-04
2.166730e-03
5.290490e-03
8.038040e-03
6.660160e-03
6.380990e-03
7.200530e-03
9.118780e-03
1.545630e-02
1.375770e-02
1.285420e-02
1.274580e-02
1.343230e-02
2.358210e-02
2.147790e-02
1.988460e-02
1.880240e-02
1.823120e-02
1.947480e-03
6.467920e-03
1.008100e-02
1.278680e-02
1.458530e-02
5.290490e-03
9.254560e-03
1.235970e-02
1.460590e-02
1.599330e-02
9.118780e-03
1.237730e-02
1.485150e-02
1.654110e-02
1.744630e-02
1.343230e-02
1.583630e-02
1.755630e-02
1.859230e-02
1.894450e-02
1.823120e-02
1.963130e-02
2.047410e-02
2.075960e-02
2.048770e-02
1.458530e-02
1.648510e-02
1.816630e-02
1.962870e-02
2.087240e-02
1.599330e-02
1.765990e-02
1.909590e-02
2.030130e-02
2.127610e-02
1.744630e-02
1.886190e-02
2.004610e-02
2.099910e-02
2.172070e-02
1.894450e-02
2.009100e-02
2.101680e-02
2.172190e-02
2.220620e-02
2.048770e-02
2.134730e-02
2.200800e-02
2.246980e-02
2.273270e-02
2.309330e-02
2.286540e-02
2.266150e-02
2.248140e-02
2.232520e-02
2.348320e-02
2.330150e-02
2.313650e-02
2.298850e-02
2.285730e-02
2.386930e-02
2.373040e-02
2.360180e-02
2.348340e-02
2.337550e-02
2.425160e-02
2.415230e-02
2.405710e-02
2.396620e-02
2.387950e-02
2.463000e-02
2.456710e-02
2.450270e-02
2.443690e-02
2.436960e-02
2.232520e-02
2.221270e-02
2.214210e-02
2.211350e-02
2.212680e-02
2.285730e-02
2.273360e-02
2.264580e-02
2.259420e-02
2.257870e-02
2.337550e-02
2.324950e-02
2.315390e-02
2.308850e-02
2.305340e-02
2.387950e-02
2.376070e-02
2.366630e-02
2.359650e-02
2.355120e-02
2.436960e-02
2.426690e-02
2.418300e-02
2.411800e-02
2.407190e-02
2.212680e-02
2.182210e-02
2.165640e-02
2.162960e-02
2.174180e-02
2.257870e-02
2.228940e-02
2.212530e-02
2.208630e-02
2.217240e-02
2.305340e-02
2.278760e-02
2.263250e-02
2.258800e-02
2.265430e-02
2.355120e-02
2.331670e-02
2.317790e-02
2.313490e-02
2.318760e-02
2.407190e-02
2.387670e-02
2.376170e-02
2.372680e-02
2.377210e-02
2.174180e-02
2.039030e-02
1.977620e-02
1.989960e-02
2.076050e-02
2.217240e-02
2.112680e-02
2.064830e-02
2.073710e-02
2.139310e-02
2.265430e-02
2.188400e-02
2.153900e-02
2.161940e-02
2.212520e-02
2.318760e-02
2.266200e-02
2.244830e-02
2.254660e-02
2.295680e-02
2.377210e-02
2.346070e-02
2.337620e-02
2.351860e-02
2.388790e-02
2.076050e-02
1.998930e-02
1.867880e-02
1.682910e-02
1.444020e-02
2.139310e-02
2.145390e-02
2.095510e-02
1.989670e-02
1.827880e-02
2.212520e-02
2.272520e-02
2.287490e-02
2.257450e-02
2.182370e-02
2.295680e-02
2.380330e-02
2.443850e-02
2.486230e-02
2.507480e-02
2.388790e-02
2.468820e-02
2.564560e-02
2.676020e-02
2.803210e-02
1.444020e-02
2.028700e-02
2.325670e-02
2.334940e-02
2.056510e-02
1.827880e-02
2.398770e-02
2.756480e-02
2.901010e-02
2.832370e-02
2.182370e-02
2.732690e-02
3.129540e-02
3.372940e-02
3.462880e-02
2.507480e-02
3.030440e-02
3.444850e-02
3.750730e-02
3.948070e-02
2.803210e-02
3.292030e-02
3.702420e-02
4.034380e-02
4.287910e-02
2.056510e-02
1.868270e-02
1.855800e-02
2.019120e-02
2.358210e-02
2.832370e-02
2.714790e-02
2.713470e-02
2.828400e-02
3.059590e-02
3.462880e-02
3.415520e-02
3.433530e-02
3.516900e-02
3.665650e-02
3.948070e-02
3.970470e-02
4.015990e-02
4.084620e-02
4.176370e-02
4.287910e-02
4.379630e-02
4.460850e-02
4.531550e-02
4.591750e-02
2.358210e-02
2.147790e-02
1.988460e-02
1.880240e-02
1.823120e-02
3.059590e-02
2.806720e-02
2.591380e-02
2.413590e-02
2.273340e-02
3.665650e-02
3.382320e-02
3.122570e-02
2.886400e-02
2.673820e-02
4.176370e-02
3.874580e-02
3.582020e-02
3.298680e-02
3.024560e-02
4.591750e-02
4.283510e-02
3.969740e-02
3.650420e-02
3.325560e-02
1.823120e-02
1.963130e-02
2.047410e-02
2.075960e-02
2.048770e-02
2.273340e-02
2.317750e-02
2.321250e-02
2.283830e-02
2.205510e-02
2.673820e-02
2.633590e-02
2.567120e-02
2.474410e-02
2.355470e-02
3.024560e-02
2.910640e-02
2.785020e-02
2.647680e-02
2.498640e-02
3.325560e-02
3.148920e-02
2.974950e-02
2.803650e-02
2.635030e-02
2.048770e-02
2.134730e-02
2.200800e-02
2.246980e-02
2.273270e-02
2.205510e-02
2.262540e-02
2.303380e-02
2.328020e-02
2.336450e-02
2.355470e-02
2.384320e-02
2.400640e-02
2.404450e-02
2.395740e-02
2.498640e-02
2.500040e-02
2.492590e-02
2.476290e-02
2.451130e-02
2.635030e-02
2.609720e-02
2.579220e-02
2.543520e-02
2.502620e-02
2.463000e-02
2.456710e-02
2.450270e-02
2.443690e-02
2.436960e-02
2.499690e-02
2.496540e-02
2.493010e-02
2.489110e-02
2.484820e-02
2.534870e-02
2.534660e-02
2.533920e-02
2.532630e-02
2.530810e-02
2.568540e-02
2.571070e-02
2.572980e-02
2.574270e-02
2.574930e-02
2.600690e-02
2.605770e-02
2.610210e-02
2.614010e-02
2.617190e-02
2.436960e-02
2.426690e-02
2.418300e-02
2.411800e-02
2.407190e-02
2.484820e-02
2.475430e-02
2.468200e-02
2.463140e-02
2.460240e-02
2.530810e-02
2.522430e-02
2.516490e-02
2.513010e-02
2.511980e-02
2.574930e-02
2.567690e-02
2.563190e-02
2.561420e-02
2.562390e-02
2.617190e-02
2.611210e-02
2.608270e-02
2.608370e-02
2.611490e-02
2.407190e-02
2.387670e-02
2.376170e-02
2.372680e-02
2.377210e-02
2.460240e-02
2.443130e-02
2.434340e-02
2.433870e-02
2.441710e-02
2.511980e-02
2.497450e-02
2.491340e-02
2.493630e-02
2.504330e-02
2.562390e-02
2.550640e-02
2.547170e-02
2.551980e-02
2.565080e-02
2.611490e-02
2.602680e-02
2.601830e-02
2.608920e-02
2.623970e-02
2.377210e-02
2.346070e-02
2.337620e-02
2.351860e-02
2.388790e-02
2.441710e-02
2.420230e-02
2.421230e-02
2.444710e-02
2.490670e-02
2.504330e-02
2.491330e-02
2.499930e-02
2.530130e-02
2.581930e-02
2.565080e-02
2.559370e-02
2.573720e-02
2.608120e-02
2.662570e-02
2.623970e-02
2.624360e-02
2.642590e-02
2.678670e-02
2.732580e-02
2.388790e-02
2.468820e-02
2.564560e-02
2.676020e-02
2.803210e-02
2.490670e-02
2.560330e-02
2.664110e-02
2.802000e-02
2.974020e-02
2.581930e-02
2.647780e-02
2.754880e-02
2.903230e-02
3.092820e-02
2.662570e-02
2.731180e-02
2.836890e-02
2.979690e-02
3.159590e-02
2.732580e-02
2.810520e-02
2.910120e-02
3.031390e-02
3.174340e-02
2.803210e-02
3.292030e-02
3.702420e-02
4.034380e-02
4.287910e-02
2.974020e-02
3.471250e-02
3.900910e-02
4.263010e-02
4.557560e-02
3.092820e-02
3.569730e-02
3.993900e-02
4.365340e-02
4.684040e-02
3.159590e-02
3.587470e-02
3.981390e-02
4.341350e-02
4.667350e-02
3.174340e-02
3.524470e-02
3.863380e-02
4.191050e-02
4.507490e-02
4.287910e-02
4.379630e-02
4.460850e-02
4.531550e-02
4.591750e-02
4.557560e-02
4.697030e-02
4.801320e-02
4.870440e-02
4.904390e-02
4.684040e-02
4.857580e-02
4.976410e-02
5.040550e-02
5.049980e-02
4.667350e-02
4.861280e-02
4.986110e-02
5.041860e-02
5.028510e-02
4.507490e-02
4.708130e-02
4.830420e-02
4.874380e-02
4.839990e-02
4.591750e-02
4.283510e-02
3.969740e-02
3.650420e-02
3.325560e-02
4.904390e-02
4.565040e-02
4.221410e-02
3.873520e-02
3.521360e-02
5.049980e-02
4.704990e-02
4.357920e-02
4.008770e-02
3.657540e-02
5.028510e-02
4.703380e-02
4.379260e-02
4.056170e-02
3.734090e-02
4.839990e-02
4.560190e-02
4.285430e-02
4.015710e-02
3.751020e-02
3.325560e-02
3.148920e-02
2.974950e-02
2.803650e-02
2.635030e-02
3.521360e-02
3.308130e-02
3.109770e-02
2.926270e-02
2.757640e-02
3.657540e-02
3.424200e-02
3.213730e-02
3.026130e-02
2.861400e-02
3.734090e-02
3.497130e-02
3.286840e-02
3.103240e-02
2.946320e-02
3.751020e-02
3.526920e-02
3.329110e-02
3.157600e-02
3.012390e-02
2.635030e-02
2.609720e-02
2.579220e-02
2.543520e-02
2.502620e-02
2.757640e-02
2.702830e-02
2.650870e-02
2.601760e-02
2.555500e-02
2.861400e-02
2.783410e-02
2.714810e-02
2.655610e-02
2.605810e-02
2.946320e-02
2.851460e-02
2.771050e-02
2.705080e-02
2.653560e-02
3.012390e-02
2.906990e-02
2.819590e-02
2.750170e-02
2.698740e-02
2.600690e-02
2.605770e-02
2.610210e-02
2.614010e-02
2.617190e-02
2.630990e-02
2.638180e-02
2.644760e-02
2.650740e-02
2.656110e-02
2.659390e-02
2.668590e-02
2.677160e-02
2.685090e-02
2.692390e-02
2.685910e-02
2.697010e-02
2.707400e-02
2.717070e-02
2.726030e-02
2.710540e-02
2.723430e-02
2.735480e-02
2.746670e-02
2.757020e-02
2.617190e-02
2.611210e-02
2.608270e-02
2.608370e-02
2.611490e-02
2.656110e-02
2.652390e-02
2.651380e-02
2.653080e-02
2.657470e-02
2.692390e-02
2.690900e-02
2.691780e-02
2.695010e-02
2.700600e-02
2.726030e-02
2.726740e-02
2.729460e-02
2.734170e-02
2.740880e-02
2.757020e-02
2.759920e-02
2.764430e-02
2.770560e-02
2.778310e-02
2.611490e-02
2.602680e-02
2.601830e-02
2.608920e-02
2.623970e-02
2.657470e-02
2.652200e-02
2.653890e-02
2.662530e-02
2.678130e-02
2.700600e-02
2.698510e-02
2.702460e-02
2.712470e-02
2.728510e-02
2.740880e-02
2.741600e-02
2.747550e-02
2.758730e-02
2.775130e-02
2.778310e-02
2.781480e-02
2.789150e-02
2.801310e-02
2.817970e-02
2.623970e-02
2.624360e-02
2.642590e-02
2.678670e-02
2.732580e-02
2.678130e-02
2.685020e-02
2.706760e-02
2.743340e-02
2.794760e-02
2.728510e-02
2.740580e-02
2.764920e-02
2.801550e-02
2.850440e-02
2.775130e-02
2.791040e-02
2.817090e-02
2.853290e-02
2.899630e-02
2.817970e-02
2.836390e-02
2.863260e-02
2.898570e-02
2.942310e-02
2.732580e-02
2.810520e-02
2.910120e-02
3.031390e-02
3.174340e-02
2.794760e-02
2.874670e-02
2.969870e-02
3.080360e-02
3.206150e-02
2.850440e-02
2.930030e-02
3.020250e-02
3.121110e-02
3.232600e-02
2.899630e-02
2.976610e-02
3.061290e-02
3.153650e-02
3.253700e-02
2.942310e-02
3.014410e-02
3.092970e-02
3.177970e-02
3.269430e-02
3.174340e-02
3.524470e-02
3.863380e-02
4.191050e-02
4.507490e-02
3.206150e-02
3.482680e-02
3.753990e-02
4.020090e-02
4.280970e-02
3.232600e-02
3.449710e-02
3.664690e-02
3.877520e-02
4.088210e-02
3.253700e-02
3.425580e-02
3.595460e-02
3.763340e-02
3.929200e-02
3.269430e-02
3.410280e-02
3.546320e-02
3.677540e-02
3.803960e-02
4.507490e-02
4.708130e-02
4.830420e-02
4.874380e-02
4.839990e-02
4.280970e-02
4.459680e-02
4.572630e-02
4.619810e-02
4.601220e-02
4.088210e-02
4.243060e-02
4.344590e-02
4.392800e-02
4.387700e-02
3.929200e-02
4.058250e-02
4.146300e-02
4.193360e-02
4.199440e-02
3.803960e-02
3.905260e-02
3.977770e-02
4.021490e-02
4.036430e-02
4.839990e-02
4.560190e-02
4.285430e-02
4.015710e-02
3.751020e-02
4.601220e-02
4.384880e-02
4.168620e-02
3.952410e-02
3.736280e-02
4.387700e-02
4.225800e-02
4.059310e-02
3.888250e-02
3.712610e-02
4.199440e-02
4.082930e-02
3.957530e-02
3.823230e-02
3.680030e-02
4.036430e-02
3.956280e-02
3.863250e-02
3.757330e-02
3.638520e-02
3.751020e-02
3.526920e-02
3.329110e-02
3.157600e-02
3.012390e-02
3.736280e-02
3.535310e-02
3.355920e-02
3.198090e-02
3.061840e-02
3.712610e-02
3.533130e-02
3.371270e-02
3.227050e-02
3.100460e-02
3.680030e-02
3.520360e-02
3.375180e-02
3.244480e-02
3.128270e-02
3.638520e-02
3.497010e-02
3.367630e-02
3.250380e-02
3.145260e-02
3.012390e-02
2.906990e-02
2.819590e-02
2.750170e-02
2.698740e-02
3.061840e-02
2.954950e-02
2.865920e-02
2.794750e-02
2.741440e-02
3.100460e-02
2.994030e-02
2.904990e-02
2.833330e-02
2.779060e-02
3.128270e-02
3.024240e-02
2.936790e-02
2.865910e-02
2.811600e-02
3.145260e-02
3.045580e-02
2.961330e-02
2.892500e-02
2.839080e-02
2.710540e-02
2.723430e-02
2.735480e-02
2.746670e-02
2.757020e-02
2.733260e-02
2.747450e-02
2.760780e-02
2.773270e-02
2.784910e-02
2.754220e-02
2.769530e-02
2.783980e-02
2.797550e-02
2.810250e-02
2.773410e-02
2.789690e-02
2.805060e-02
2.819500e-02
2.833020e-02
2.790840e-02
2.807930e-02