<?xml version="1.0"?>
<VTKFile type="UnstructuredGrid" version="0.1" byte_order="LittleEndian" compressor="vtkZLibDataCompressor">
<UnstructuredGrid>
<Piece NumberOfPoints="2500" NumberOfCells="1600">
<Points>
<DataArray type="Float32" NumberOfComponents="3" format="ascii">
-3.630000e+00 0.000000e+00 0.000000e+00
-3.448500e+00 0.000000e+00 0.000000e+00
-3.267000e+00 0.000000e+00 0.000000e+00
-3.085500e+00 0.000000e+00 0.000000e+00
-2.904000e+00 0.000000e+00 0.000000e+00
-3.630000e+00 1.282500e-01 0.000000e+00
-3.448500e+00 1.282500e-01 0.000000e+00
-3.267000e+00 1.282500e-01 0.000000e+00
-3.085500e+00 1.282500e-01 0.000000e+00
-2.904000e+00 1.282500e-01 0.000000e+00
-3.630000e+00 2.565000e-01 0.000000e+00
-3.448500e+00 2.565000e-01 0.000000e+00
-3.267000e+00 2.565000e-01 0.000000e+00
-3.085500e+00 2.565000e-01 0.000000e+00
-2.904000e+00 2.565000e-01 0.000000e+00
-3.630000e+00 3.847500e-01 0.000000e+00
-3.448500e+00 3.847500e-01 0.000000e+00
-3.267000e+00 3.847500e-01 0.000000e+00
-3.085500e+00 3.847500e-01 0.000000e+00
-2.904000e+00 3.847500e-01 0.000000e+00
-3.630000e+00 5.130000e-01 0.000000e+00
-3.448500e+00 5.130000e-01 0.000000e+00
-3.267000e+00 5.130000e-01 0.000000e+00
-3.085500e+00 5.130000e-01 0.000000e+00
-2.904000e+00 5.130000e-01 0.000000e+00
-2.904000e+00 0.000000e+00 0.000000e+00
-2.722500e+00 0.000000e+00 0.000000e+00
-2.541000e+00 0.000000e+00 0.000000e+00
-2.359500e+00 0.000000e+00 0.000000e+00
-2.178000e+00 0.000000e+00 0.000000e+00
-2.904000e+00 1.282500e-01 0.000000e+00
-2.722500e+00 1.282500e-01 0.000000e+00
-2.541000e+00 1.282500e-01 0.000000e+00
-2.359500e+00 1.282500e-01 0.000000e+00
-2.178000e+00 1.282500e-01 0.000000e+00
-2.904000e+00 2.565000e-01 0.000000e+00
-2.722500e+00 2.565000e-01 0.000000e+00
-2.541000e+00 2.565000e-01 0.000000e+00
-2.359500e+00 2.565000e-01 0.000000e+00
-2.178000e+00 2.565000e-01 0.000000e+00
-2.904000e+00 3.847500e-01 0.000000e+00
-2.722500e+00 3.847500e-01 0.000000e+00
-2.541000e+00 3.847500e-01 0.000000e+00
-2.359500e+00 3.847500e-01 0.000000e+00
-2.178000e+00 3.847500e-01 0.000000e+00
-2.904000e+00 5.130000e-01 0.000000e+00
-2.722500e+00 5.130000e-01 0.000000e+00
-2.541000e+00 5.130000e-01 0.000000e+00
-2.359500e+00 5.130000e-01 0.000000e+00
-2.178000e+00 5.130000e-01 0.000000e+00
-2.178000e+00 0.000000e+00 0.000000e+00
-1.996500e+00 0.000000e+00 0.000000e+00
-1.815000e+00 0.000000e+00 0.000000e+00
-1.633500e+00 0.000000e+00 0.000000e+00
-1.452000e+00 0.000000e+00 0.000000e+00
-2.178000e+00 1.282500e-01 0.000000e+00
-1.996500e+00 1.282500e-01 0.000000e+00
-1.815000e+00 1.282500e-01 0.000000e+00
-1.633500e+00 1.282500e-01 0.000000e+00
-1.452000e+00 1.282500e-01 0.000000e+00
-2.178000e+00 2.565000e-01 0.000000e+00
-1.996500e+00 2.565000e-01 0.000000e+00
-1.815000e+00 2.565000e-01 0.000000e+00
-1.633500e+00 2.565000e-01 0.000000e+00
-1.452000e+00 2.565000e-01 0.000000e+00
-2.178000e+00 3.847500e-01 0.000000e+00
-1.996500e+00 3.847500e-01 0.000000e+00
-1.815000e+00 3.847500e-01 0.000000e+00
-1.633500e+00 3.847500e-01 0.000000e+00
-1.452000e+00 3.847500e-01 0.000000e+00
-2.178000e+00 5.130000e-01 0.000000e+00
-1.996500e+00 5.130000e-01 0.000000e+00
-1.815000e+00 5.130000e-01 0.000000e+00
-1.633500e+00 5.130000e-01 0.000000e+00
-1.452000e+00 5.130000e-01 0.000000e+00
-1.452000e+00 0.000000e+00 0.000000e+00
-1.270500e+00 0.000000e+00 0.000000e+00
-1.089000e+00 0.000000e+00 0.000000e+00
-9.075000e-01 0.000000e+00 0.000000e+00
-7.260000e-01 0.000000e+00 0.000000e+00
-1.452000e+00 1.282500e-01 0.000000e+00
-1.270500e+00 1.282500e-01 0.000000e+00
-1.089000e+00 1.282500e-01 0.000000e+00
-9.075000e-01 1.282500e-01 0.000000e+00
-7.260000e-01 1.282500e-01 0.000000e+00
-1.452000e+00 2.565000e-01 0.000000e+00
-1.270500e+00 2.565000e-01 0.000000e+00
-1.089000e+00 2.565000e-01 0.000000e+00
-9.075000e-01 2.565000e-01 0.000000e+00
-7.260000e-01 2.565000e-01 0.000000e+00
-1.452000e+00 3.847500e-01 0.000000e+00
-1.270500e+00 3.847500e-01 0.000000e+00
-1.089000e+00 3.847500e-01 0.000000e+00
-9.075000e-01 3.847500e-01 0.000000e+00
-7.260000e-01 3.847500e-01 0.000000e+00
-1.452000e+00 5.130000e-01 0.000000e+00
-1.270500e+00 5.130000e-01 0.000000e+00
-1.089000e+00 5.130000e-01 0.000000e+00
-9.075000e-01 5.130000e-01 0.000000e+00
-7.260000e-01 5.130000e-01 0.000000e+00
-7.260000e-01 0.000000e+00 0.000000e+00
-5.445000e-01 0.000000e+00 0.000000e+00
-3.630000e-01 0.000000e+00 0.000000e+00
-1.815000e-01 0.000000e+00 0.000000e+00
0.000000e+00 0.000000e+00 0.000000e+00
-7.260000e-01 1.282500e-01 0.000000e+00
-5.445000e-01 1.282500e-01 0.000000e+00
-3.630000e-01 1.282500e-01 0.000000e+00
-1.815000e-01 1.282500e-01 0.000000e+00
0.000000e+00 1.282500e-01 0.000000e+00
-7.260000e-01 2.565000e-01 0.000000e+00
-5.445000e-01 2.565000e-01 0.000000e+00
-3.630000e-01 2.565000e-01 0.000000e+00
-1.815000e-01 2.565000e-01 0.000000e+00
0.000000e+00 2.565000e-01 0.000000e+00
-7.260000e-01 3.847500e-01 0.000000e+00
-5.445000e-01 3.847500e-01 0.000000e+00
-3.630000e-01 3.847500e-01 0.000000e+00
-1.815000e-01 3.847500e-01 0.000000e+00
0.000000e+00 3.847500e-01 0.000000e+00
-7.260000e-01 5.130000e-01 0.000000e+00
-5.445000e-01 5.130000e-01 0.000000e+00
-3.630000e-01 5.130000e-01 0.000000e+00
-1.815000e-01 5.130000e-01 0.000000e+00
0.000000e+00 5.130000e-01 0.000000e+00
0.000000e+00 0.000000e+00 0.000000e+00
1.815000e-01 0.000000e+00 0.000000e+00
3.630000e-01 0.000000e+00 0.000000e+00
5.445000e-01 0.000000e+00 0.000000e+00
7.260000e-01 0.000000e+00 0.000000e+00
0.000000e+00 1.282500e-01 0.000000e+00
1.815000e-01 1.282500e-01 0.000000e+00
3.630000e-01 1.282500e-01 0.000000e+00
5.445000e-01 1.282500e-01 0.000000e+00
7.260000e-01 1.282500e-01 0.000000e+00
0.000000e+00 2.565000e-01 0.000000e+00
1.815000e-01 2.565000e-01 0.000000e+00
3.630000e-01 2.565000e-01 0.000000e+00
5.445000e-01 2.565000e-01 0.000000e+00
7.260000e-01 2.565000e-01 0.000000e+00
0.000000e+00 3.847500e-01 0.000000e+00
1.815000e-01 3.847500e-01 0.000000e+00
3.630000e-01 3.847500e-01 0.000000e+00
5.445000e-01 3.847500e-01 0.000000e+00
7.260000e-01 3.847500e-01 0.000000e+00
0.000000e+00 5.130000e-01 0.000000e+00
1.815000e-01 5.130000e-01 0.000000e+00
3.630000e-01 5.130000e-01 0.000000e+00
5.445000e-01 5.130000e-01 0.000000e+00
7.260000e-01 5.130000e-01 0.000000e+00
7.260000e-01 0.000000e+00 0.000000e+00
9.075000e-01 0.000000e+00 0.000000e+00
1.089000e+00 0.000000e+00 0.000000e+00
1.270500e+00 0.000000e+00 0.000000e+00
1.452000e+00 0.000000e+00 0.000000e+00
7.260000e-01 1.282500e-01 0.000000e+00
9.075000e-01 1.282500e-01 0.000000e+00
1.089000e+00 1.282500e-01 0.000000e+00
1.270500e+00 1.282500e-01 0.000000e+00
1.452000e+00 1.282500e-01 0.000000e+00
7.260000e-01 2.565000e-01 0.000000e+00
9.075000e-01 2.565000e-01 0.000000e+00
1.089000e+00 2.565000e-01 0.000000e+00
1.270500e+00 2.565000e-01 0.000000e+00
1.452000e+00 2.565000e-01 0.000000e+00
7.260000e-01 3.847500e-01 0.000000e+00
9.075000e-01 3.847500e-01 0.000000e+00
1.089000e+00 3.847500e-01 0.000000e+00
1.270500e+00 3.847500e-01 0.000000e+00
1.452000e+00 3.847500e-01 0.000000e+00
7.260000e-01 5.130000e-01 0.000000e+00
9.075000e-01 5.130000e-01 0.000000e+00
1.089000e+00 5.130000e-01 0.000000e+00
1.270500e+00 5.130000e-01 0.000000e+00
1.452000e+00 5.130000e-01 0.000000e+00
1.452000e+00 0.000000e+00 0.000000e+00
1.633500e+00 0.000000e+00 0.000000e+00
1.815000e+00 0.000000e+00 0.000000e+00
1.996500e+00 0.000000e+00 0.000000e+00
2.178000e+00 0.000000e+00 0.000000e+00
1.452000e+00 1.282500e-01 0.000000e+00
1.633500e+00 1.282500e-01 0.000000e+00
1.815000e+00 1.282500e-01 0.000000e+00
1.996500e+00 1.282500e-01 0.000000e+00
2.178000e+00 1.282500e-01 0.000000e+00
1.452000e+00 2.565000e-01 0.000000e+00
1.633500e+00 2.565000e-01 0.000000e+00
1.815000e+00 2.565000e-01 0.000000e+00
1.996500e+00 2.565000e-01 0.000000e+00
2.178000e+00 2.565000e-01 0.000000e+00
1.452000e+00 3.847500e-01 0.000000e+00
1.633500e+00 3.847500e-01 0.000000e+00
1.815000e+00 3.847500e-01 0.000000e+00
1.996500e+00 3.847500e-01 0.000000e+00
2.178000e+00 3.847500e-01 0.000000e+00
1.452000e+00 5.130000e-01 0.000000e+00
1.633500e+00 5.130000e-01 0.000000e+00
1.815000e+00 5.130000e-01 0.000000e+00
1.996500e+00 5.130000e-01 0.000000e+00
2.178000e+00 5.130000e-01 0.000000e+00
2.178000e+00 0.000000e+00 0.000000e+00
2.359500e+00 0.000000e+00 0.000000e+00
2.541000e+00 0.000000e+00 0.000000e+00
2.722500e+00 0.000000e+00 0.000000e+00
2.904000e+00 0.000000e+00 0.000000e+00
2.178000e+00 1.282500e-01 0.000000e+00
2.359500e+00 1.282500e-01 0.000000e+00
2.541000e+00 1.282500e-01 0.000000e+00
2.722500e+00 1.282500e-01 0.000000e+00
2.904000e+00 1.282500e-01 0.000000e+00
2.178000e+00 2.565000e-01 0.000000e+00
2.359500e+00 2.565000e-01 0.000000e+00
2.541000e+00 2.565000e-01 0.000000e+00
2.722500e+00 2.565000e-01 0.000000e+00
2.904000e+00 2.565000e-01 0.000000e+00
2.178000e+00 3.847500e-01 0.000000e+00
2.359500e+00 3.847500e-01 0.000000e+00
2.541000e+00 3.847500e-01 0.000000e+00
2.722500e+00 3.847500e-01 0.000000e+00
2.904000e+00 3.847500e-01 0.000000e+00
2.178000e+00 5.130000e-01 0.000000e+00
2.359500e+00 5.130000e-01 0.000000e+00
2.541000e+00 5.130000e-01 0.000000e+00
2.722500e+00 5.130000e-01 0.000000e+00
2.904000e+00 5.130000e-01 0.000000e+00
2.904000e+00 0.000000e+00 0.000000e+00
3.085500e+00 0.000000e+00 0.000000e+00
3.267000e+00 0.000000e+00 0.000000e+00
3.448500e+00 0.000000e+00 0.000000e+00
3.630000e+00 0.000000e+00 0.000000e+00
2.904000e+00 1.282500e-01 0.000000e+00
3.085500e+00 1.282500e-01 0.000000e+00
3.267000e+00 1.282500e-01 0.000000e+00
3.448500e+00 1.282500e-01 0.000000e+00
3.630000e+00 1.282500e-01 0.000000e+00
2.904000e+00 2.565000e-01 0.000000e+00
3.085500e+00 2.565000e-01 0.000000e+00
3.267000e+00 2.565000e-01 0.000000e+00
3.448500e+00 2.565000e-01 0.000000e+00
3.630000e+00 2.565000e-01 0.000000e+00
2.904000e+00 3.847500e-01 0.000000e+00
3.085500e+00 3.847500e-01 0.000000e+00
3.267000e+00 3.847500e-01 0.000000e+00
3.448500e+00 3.847500e-01 0.000000e+00
3.630000e+00 3.847500e-01 0.000000e+00
2.904000e+00 5.130000e-01 0.000000e+00
[...]
<PointData>
<DataArray type="Float32" Name="V1" format="ascii">
0.000000e+00
0.000000e+00
0.000000e+00
0.000000e+00
0.000000e+00
1.264110e-02
1.103350e-02
9.648520e-03
8.486340e-03
7.546910e-03
2.028400e-02
1.822620e-02
1.639010e-02
1.477570e-02
1.338310e-02
2.292870e-02
2.157820e-02
2.022470e-02
1.886820e-02
1.750860e-02
2.057510e-02
2.108950e-02
2.115240e-02
2.076370e-02
1.992330e-02
0.000000e+00
0.000000e+00
0.000000e+00
0.000000e+00
0.000000e+00
7.546910e-03
6.489830e-03
5.683110e-03
5.126730e-03
4.820710e-03
1.338310e-02
1.181240e-02
1.057660e-02
9.675630e-03
9.109520e-03
1.750860e-02
1.596780e-02
1.468050e-02
1.364670e-02
1.286640e-02
1.992330e-02
1.895590e-02
1.799470e-02
1.703990e-02
1.609140e-02
0.000000e+00
0.000000e+00
0.000000e+00
0.000000e+00
0.000000e+00
4.820710e-03
4.560380e-03
4.381230e-03
4.283260e-03
4.266470e-03
9.109520e-03
8.622670e-03
8.261900e-03
8.027210e-03
7.918610e-03
1.286640e-02
1.218690e-02
1.164200e-02
1.123180e-02
1.095640e-02
1.609140e-02
1.525290e-02
1.452150e-02
1.389720e-02
1.337990e-02
0.000000e+00
0.000000e+00
0.000000e+00
0.000000e+00
0.000000e+00
4.266470e-03
3.824330e-03
4.043740e-03
4.924710e-03
6.467230e-03
7.918610e-03
6.924650e-03
7.117620e-03
8.497500e-03
1.106430e-02
1.095640e-02
9.300960e-03
9.221620e-03
1.071840e-02
1.379120e-02
1.337990e-02
1.095330e-02
1.035580e-02
1.158730e-02
1.464800e-02
0.000000e+00
0.000000e+00
0.000000e+00
0.000000e+00
0.000000e+00
6.467230e-03
5.902740e-03
3.598800e-03
-4.445720e-04
-6.227390e-03
1.106430e-02
9.269630e-03
4.791190e-03
-2.371020e-03
-1.221700e-02
1.379120e-02
1.010070e-02
3.577150e-03
-5.779350e-03
-1.796880e-02
1.464800e-02
8.395890e-03
-4.330520e-05
-1.066960e-02
-2.348290e-02
0.000000e+00
0.000000e+00
0.000000e+00
0.000000e+00
0.000000e+00
-6.227390e-03
-8.010320e-03
-1.018450e-02
-1.274990e-02
-1.570660e-02
-1.221700e-02
-1.455600e-02
-1.766430e-02
-2.154170e-02
-2.618840e-02
-1.796880e-02
-1.963710e-02
-2.243930e-02
-2.637530e-02
-3.144510e-02
-2.348290e-02
-2.325360e-02
-2.450950e-02
-2.725060e-02
-3.147700e-02
0.000000e+00
0.000000e+00
0.000000e+00
0.000000e+00
0.000000e+00
-1.570660e-02
-1.574090e-02
-1.447040e-02
-1.189520e-02
-8.015390e-03
-2.618840e-02
-2.575070e-02
-2.334880e-02
-1.898240e-02
-1.265160e-02
-3.144510e-02
-3.002970e-02
-2.663510e-02
-2.126150e-02
-1.390870e-02
-3.147700e-02
-2.857760e-02
-2.432940e-02
-1.873240e-02
-1.178670e-02
0.000000e+00
0.000000e+00
0.000000e+00
0.000000e+00
0.000000e+00
-8.015390e-03
-6.020720e-03
-3.983890e-03
-1.904890e-03
2.162600e-04
-1.265160e-02
-9.321840e-03
-5.960750e-03
-2.568360e-03
8.553230e-04
-1.390870e-02
-9.903360e-03
-5.930580e-03
-1.990400e-03
1.917190e-03
-1.178670e-02
-7.765280e-03
-3.893390e-03
-1.710050e-04
3.401860e-03
0.000000e+00
0.000000e+00
0.000000e+00
0.000000e+00
0.000000e+00
2.162600e-04
2.312040e-03
3.977380e-03
5.212270e-03
6.016710e-03
8.553230e-04
4.313370e-03
7.077680e-03
9.148260e-03
1.052510e-02
1.917190e-03
6.003970e-03
9.300900e-03
1.180800e-02
1.352520e-02
3.401860e-03
7.383860e-03
1.064700e-02
1.319140e-02
1.501700e-02
0.000000e+00
0.000000e+00
0.000000e+00
0.000000e+00
0.000000e+00
6.016710e-03
6.772200e-03
7.511180e-03
8.233660e-03
8.939630e-03
1.052510e-02
1.184930e-02
1.311590e-02
1.432480e-02
1.547600e-02
1.352520e-02
1.523130e-02
1.681400e-02
1.827330e-02
1.960920e-02
1.501700e-02
1.691820e-02
1.860570e-02
2.007930e-02
2.133910e-02
2.057510e-02
2.108950e-02
2.115240e-02
2.076370e-02
1.992330e-02
2.078850e-02
2.097880e-02
2.099770e-02
2.084530e-02
2.052140e-02
2.103660e-02
2.096860e-02
2.091530e-02
2.087680e-02
2.085290e-02
2.131930e-02
2.105890e-02
2.090520e-02
2.085810e-02
2.091780e-02
2.163650e-02
2.124960e-02
2.096720e-02
2.078940e-02
2.071610e-02
1.992330e-02
1.895590e-02
1.799470e-02
1.703990e-02
1.609140e-02
2.052140e-02
2.005000e-02
1.949580e-02
1.885870e-02
1.813870e-02
2.085290e-02
2.073300e-02
2.048560e-02
2.011090e-02
1.960870e-02
2.091780e-02
2.100470e-02
2.096430e-02
2.079650e-02
2.050130e-02
2.071610e-02
2.086530e-02
2.093180e-02
2.091560e-02
2.081670e-02
1.609140e-02
1.525290e-02
1.452150e-02
1.389720e-02
1.337990e-02
1.813870e-02
1.732260e-02
1.655910e-02
1.584820e-02
1.518990e-02
1.960870e-02
1.882850e-02
1.807750e-02
1.735560e-02
1.666280e-02
2.050130e-02
1.977090e-02
1.907690e-02
1.841960e-02
1.779870e-02
2.081670e-02
2.014950e-02
1.955730e-02
1.903990e-02
1.859750e-02
1.337990e-02
1.095330e-02
1.035580e-02
1.158730e-02
1.464800e-02
1.518990e-02
1.205720e-02
1.103640e-02
1.212750e-02
1.533050e-02
1.666280e-02
1.296380e-02
1.162690e-02
1.265200e-02
1.603910e-02
1.779870e-02
1.367320e-02
1.212720e-02
1.316080e-02
1.677380e-02
1.859750e-02
1.418530e-02
1.253750e-02
1.365390e-02
1.753460e-02
1.464800e-02
8.395890e-03
-4.330520e-05
-1.066960e-02
-2.348290e-02
1.533050e-02
7.008910e-03
-2.367190e-03
-1.279780e-02
-2.428290e-02
1.603910e-02
6.475090e-03
-3.300500e-03
-1.328760e-02
-2.348630e-02
1.677380e-02
6.794410e-03
-2.843220e-03
-1.213910e-02
-2.109310e-02
1.753460e-02
7.966880e-03
-9.953670e-04
-9.352110e-03
-1.710330e-02
-2.348290e-02
-2.325360e-02
-2.450950e-02
-2.725060e-02
-3.147700e-02
-2.428290e-02
-2.180460e-02
-2.176450e-02
-2.416270e-02
-2.899910e-02
-2.348630e-02
-1.903440e-02
-1.774960e-02
-1.963180e-02
-2.468110e-02
-2.109310e-02
-1.494300e-02
-1.246450e-02
-1.365780e-02
-1.852280e-02
-1.710330e-02
-9.530280e-03
-5.909420e-03
-6.240770e-03
-1.052430e-02
-3.147700e-02
-2.857760e-02
-2.432940e-02
-1.873240e-02
-1.178670e-02
-2.899910e-02
-2.734320e-02
-2.372080e-02
-1.813180e-02
-1.057620e-02
-2.468110e-02
-2.421360e-02
-2.130440e-02
-1.595360e-02
-8.161040e-03
-1.852280e-02
-1.918860e-02
-1.708020e-02
-1.219780e-02
-4.541200e-03
-1.052430e-02
-1.226820e-02
-1.104830e-02
-6.864410e-03
2.833160e-04
-1.178670e-02
-7.765280e-03
-3.893390e-03
-1.710050e-04
3.401860e-03
-1.057620e-02
-6.740440e-03
-2.975080e-03
7.198650e-04
4.344400e-03
-8.161040e-03
-4.654450e-03
-1.170330e-03
2.291300e-03
5.730460e-03
-4.541200e-03
-1.507320e-03
1.520860e-03
4.543310e-03
7.560050e-03
2.833160e-04
2.700970e-03
5.098490e-03
7.475880e-03
9.833150e-03
3.401860e-03
7.383860e-03
1.064700e-02
1.319140e-02
1.501700e-02
4.344400e-03
8.526800e-03
1.185970e-02
1.434320e-02
1.597710e-02
5.730460e-03
9.898780e-03
1.313470e-02
1.543810e-02
1.680910e-02
7.560050e-03
1.149980e-02
1.447190e-02
1.647620e-02
1.751290e-02
9.833150e-03
1.332990e-02
1.587140e-02
1.745760e-02
1.808850e-02
1.501700e-02
1.691820e-02
1.860570e-02
2.007930e-02
2.133910e-02
1.597710e-02
1.783560e-02
1.950630e-02
2.098930e-02
2.228450e-02
1.680910e-02
1.858940e-02
2.020020e-02
2.164150e-02
2.291320e-02
1.751290e-02
1.917970e-02
2.068730e-02
2.203580e-02
2.322520e-02
1.808850e-02
1.960630e-02
2.096750e-02
2.217230e-02
2.322050e-02
2.163650e-02
2.124960e-02
2.096720e-02
2.078940e-02
2.071610e-02
2.197900e-02
2.159980e-02
2.130970e-02
2.110880e-02
2.099700e-02
2.233590e-02
2.198880e-02
2.171220e-02
2.150610e-02
2.137040e-02
2.270730e-02
2.241680e-02
2.217470e-02
2.198130e-02
2.183640e-02
2.309330e-02
2.288360e-02
2.269730e-02
2.253440e-02
2.239500e-02
2.071610e-02
2.086530e-02
2.093180e-02
2.091560e-02
2.081670e-02
2.099700e-02
2.102970e-02
2.105140e-02
2.106210e-02
2.106200e-02
2.137040e-02
2.129870e-02
2.127220e-02
2.129090e-02
2.135480e-02
2.183640e-02
2.167250e-02
2.159430e-02
2.160190e-02
2.169520e-02
2.239500e-02
2.215100e-02
2.201760e-02
2.199500e-02
2.208310e-02
2.081670e-02
2.014950e-02
1.955730e-02
1.903990e-02
1.859750e-02
2.106200e-02
2.033370e-02
1.981030e-02
1.949170e-02
1.937790e-02
2.135480e-02
2.056490e-02
2.009690e-02
1.995080e-02
2.012670e-02
2.169520e-02
2.084300e-02
2.041710e-02
2.041740e-02
2.084390e-02
2.208310e-02
2.116820e-02
2.077090e-02
2.089140e-02
2.152960e-02
1.859750e-02
1.418530e-02
1.253750e-02
1.365390e-02
1.753460e-02
1.937790e-02
1.501810e-02
1.341990e-02
1.458340e-02
1.850860e-02
2.012670e-02
1.599420e-02
1.452730e-02
1.572600e-02
1.959020e-02
2.084390e-02
1.711380e-02
1.585960e-02
1.708160e-02
2.077950e-02
2.152960e-02
1.837670e-02
1.741700e-02
1.865020e-02
2.207660e-02
1.753460e-02
7.966880e-03
-9.953670e-04
-9.352110e-03
-1.710330e-02
1.850860e-02
1.096080e-02
3.413370e-03
-4.133760e-03
-1.168060e-02
1.959020e-02
1.444000e-02
8.526600e-03
1.849870e-03
-5.590150e-03
2.077950e-02
1.840460e-02
1.434430e-02
8.598800e-03
1.167990e-03
2.207660e-02
2.285440e-02
2.086650e-02
1.611300e-02
8.593830e-03
-1.710330e-02
-9.530280e-03
-5.909420e-03
-6.240770e-03
-1.052430e-02
-1.168060e-02
-4.175120e-03
-2.016640e-04
2.397560e-04
-2.850850e-03
-5.590150e-03
1.561610e-03
5.842290e-03
7.251880e-03
5.790370e-03
1.167990e-03
7.679910e-03
1.222240e-02
1.479560e-02
1.539930e-02
8.593830e-03
1.417980e-02
1.893880e-02
2.287090e-02
2.597610e-02
-1.052430e-02
-1.226820e-02
-1.104830e-02
-6.864410e-03
2.833160e-04
-2.850850e-03
-4.797810e-03
-4.090970e-03
-7.303390e-04
5.284090e-03
5.790370e-03
3.920240e-03
4.113960e-03
6.371560e-03
1.069300e-02
1.539930e-02
1.388590e-02
1.356660e-02
1.444130e-02
1.651010e-02
2.597610e-02
2.509920e-02
2.426680e-02
2.347880e-02
2.273530e-02
2.833160e-04
2.700970e-03
5.098490e-03
7.475880e-03
9.833150e-03
5.284090e-03
7.140840e-03
8.958890e-03
1.073820e-02
1.247890e-02
1.069300e-02
1.178860e-02
1.290960e-02
1.405600e-02
1.522790e-02
1.651010e-02
1.664410e-02
1.695050e-02
1.742920e-02
1.808020e-02
2.273530e-02
2.170750e-02
2.108170e-02
2.085780e-02
2.103580e-02
9.833150e-03
1.332990e-02
1.587140e-02
1.745760e-02
1.808850e-02
1.247890e-02
1.526510e-02
1.722060e-02
1.834560e-02
1.863980e-02
1.522790e-02
1.726570e-02
1.861260e-02
1.926870e-02
1.923400e-02
1.808020e-02
1.933160e-02
2.004720e-02
2.022700e-02
1.987090e-02
2.103580e-02
2.146300e-02
2.152450e-02
2.122040e-02
2.055070e-02
1.808850e-02
1.960630e-02
2.096750e-02
2.217230e-02
2.322050e-02
1.863980e-02
2.028000e-02
2.161240e-02
2.263710e-02
2.335400e-02
1.923400e-02
2.096950e-02
2.225760e-02
2.309810e-02
2.349110e-02
1.987090e-02
2.167480e-02
2.290290e-02
2.355520e-02
2.363170e-02
2.055070e-02
2.239590e-02
2.354850e-02
2.400850e-02
2.377590e-02
2.309330e-02
2.288360e-02
2.269730e-02
2.253440e-02
2.239500e-02
2.348320e-02
2.331490e-02
2.316550e-02
2.303530e-02
2.292400e-02
2.386930e-02
2.373540e-02
2.361810e-02
2.351740e-02
2.343320e-02
2.425160e-02
2.414530e-02
2.405500e-02
2.398070e-02
2.392240e-02
2.463000e-02
2.454450e-02
2.447630e-02
2.442540e-02
2.439180e-02
2.239500e-02
2.215100e-02
2.201760e-02
2.199500e-02
2.208310e-02
2.292400e-02
2.267390e-02
2.252500e-02
2.247740e-02
2.253090e-02
2.343320e-02
2.318810e-02
2.303510e-02
2.297440e-02
2.300580e-02
2.392240e-02
2.369340e-02
2.354790e-02
2.348600e-02
2.350770e-02
2.439180e-02
2.418990e-02
2.406340e-02
2.401240e-02
2.403670e-02
2.208310e-02
2.116820e-02
2.077090e-02
2.089140e-02
2.152960e-02
2.253090e-02
2.171850e-02
2.135880e-02
2.145180e-02
2.199760e-02
2.300580e-02
2.231280e-02
2.200390e-02
2.207930e-02
2.253880e-02
2.350770e-02
2.295110e-02
2.270650e-02
2.277390e-02
2.315320e-02
2.403670e-02
2.363350e-02
2.346650e-02
2.353560e-02
2.384080e-02
2.152960e-02
1.837670e-02
1.741700e-02
1.865020e-02
2.207660e-02
2.199760e-02
1.979440e-02
1.916310e-02
2.010380e-02
2.261640e-02
2.253880e-02
2.113850e-02
2.079980e-02
2.152280e-02
2.330740e-02
2.315320e-02
2.240910e-02
2.232710e-02
2.290730e-02
2.414960e-02
2.384080e-02
2.360610e-02
2.374490e-02
2.425710e-02
2.514300e-02
2.207660e-02
2.285440e-02
2.086650e-02
1.611300e-02
8.593830e-03
2.261640e-02
2.647960e-02
2.721070e-02
2.480970e-02
1.927660e-02
2.330740e-02
2.894710e-02
3.168620e-02
3.152480e-02
2.846290e-02
2.414960e-02
3.025690e-02
3.429320e-02
3.625840e-02
3.615270e-02
2.514300e-02
3.040900e-02
3.503150e-02
3.901050e-02
4.234600e-02
8.593830e-03
1.417980e-02
1.893880e-02
2.287090e-02
2.597610e-02
1.927660e-02
2.373730e-02
2.813870e-02
3.248090e-02
3.676380e-02
2.846290e-02
3.236300e-02
3.652910e-02
4.096120e-02
4.565950e-02
3.615270e-02
4.005680e-02
4.410990e-02
4.831190e-02
5.266290e-02
4.234600e-02
4.681880e-02
5.088110e-02
5.453290e-02
5.777420e-02
2.597610e-02
2.509920e-02
2.426680e-02
2.347880e-02
2.273530e-02
3.676380e-02
3.501250e-02
3.281080e-02
3.015880e-02
2.705640e-02
4.565950e-02
4.286290e-02
3.943850e-02
3.538640e-02
3.070660e-02
5.266290e-02
4.865040e-02
4.415010e-02
3.916180e-02
3.368570e-02
5.777420e-02
5.237510e-02
4.694530e-02
4.148490e-02
3.599390e-02
2.273530e-02
2.170750e-02
2.108170e-02
2.085780e-02
2.103580e-02
2.705640e-02
2.585750e-02
2.496580e-02
2.438130e-02
2.410410e-02
3.070660e-02
2.943020e-02
2.833720e-02
2.742750e-02
2.670100e-02
3.368570e-02
3.242570e-02
3.119590e-02
2.999620e-02
2.882660e-02
3.599390e-02
3.484400e-02
3.354180e-02
3.208740e-02
3.048080e-02
2.103580e-02
2.146300e-02
2.152450e-02
2.122040e-02
2.055070e-02
2.410410e-02
2.351630e-02
2.285840e-02
2.213030e-02
2.133210e-02
2.670100e-02
2.529170e-02
2.406460e-02
2.301970e-02
2.215710e-02
2.882660e-02
2.678920e-02
2.514320e-02
2.388870e-02
2.302570e-02
3.048080e-02
2.800870e-02
2.609420e-02
2.473720e-02
2.393780e-02
2.055070e-02
2.239590e-02
2.354850e-02
2.400850e-02
2.377590e-02
2.133210e-02
2.308780e-02
2.412650e-02
2.444810e-02
2.405270e-02
2.215710e-02
2.377810e-02
2.467830e-02
2.485760e-02
2.431600e-02
2.302570e-02
2.446680e-02
2.520380e-02
2.523680e-02
2.456570e-02
2.393780e-02
2.515380e-02
2.570310e-02
2.558580e-02
2.480200e-02
2.463000e-02
2.454450e-02
2.447630e-02
2.442540e-02
2.439180e-02
2.499690e-02
2.493480e-02
2.489010e-02
2.486290e-02
2.485310e-02
2.534870e-02
2.531210e-02
2.529180e-02
2.528780e-02
2.530010e-02
2.568540e-02
2.567640e-02
2.568130e-02
2.570000e-02
2.573260e-02
2.600690e-02
2.602770e-02
2.605860e-02
2.609960e-02
2.615060e-02
2.439180e-02
2.418990e-02
2.406340e-02
2.401240e-02
2.403670e-02
2.485310e-02
2.467410e-02
2.456980e-02
2.454030e-02
2.458550e-02
2.530010e-02
2.514750e-02
2.506660e-02
2.505750e-02
2.512000e-02
2.573260e-02
2.561020e-02
2.555400e-02
2.556400e-02
2.564010e-02
2.615060e-02
2.606210e-02
2.603180e-02
2.605980e-02
2.614600e-02
2.403670e-02
2.363350e-02
2.346650e-02
2.353560e-02
2.384080e-02
2.458550e-02
2.427870e-02
2.418640e-02
2.430860e-02
2.464520e-02
2.512000e-02
2.490340e-02
2.487680e-02
2.504000e-02
2.539310e-02
2.564010e-02
2.550770e-02
2.553760e-02
2.572980e-02
2.608430e-02
2.614600e-02
2.609160e-02
2.616890e-02
2.637810e-02
2.671900e-02
2.384080e-02
2.360610e-02
2.374490e-02
2.425710e-02
2.514300e-02
2.464520e-02
2.461730e-02
2.490580e-02
2.551060e-02
2.643170e-02
2.539310e-02
2.555670e-02
2.597300e-02
2.664200e-02
2.756370e-02
2.608430e-02
2.642420e-02
2.694650e-02
2.765140e-02
2.853880e-02
2.671900e-02
2.721980e-02
2.782640e-02
2.853880e-02
2.935700e-02
2.514300e-02
3.040900e-02
3.503150e-02
3.901050e-02
4.234600e-02
2.643170e-02
3.043050e-02
3.446940e-02
3.854830e-02
4.266720e-02
2.756370e-02
3.057870e-02
3.401190e-02
3.786310e-02
4.213250e-02
2.853880e-02
3.085350e-02
3.365890e-02
3.695510e-02
4.074210e-02
2.935700e-02
3.125490e-02
3.341070e-02
3.582430e-02
3.849580e-02
4.234600e-02
4.681880e-02
5.088110e-02
5.453290e-02
5.777420e-02
4.266720e-02
4.791900e-02
5.226760e-02
5.571290e-02
5.825500e-02
4.213250e-02
4.755650e-02
5.185120e-02
5.501640e-02
5.705220e-02
4.074210e-02
4.573150e-02
4.963190e-02
5.244330e-02
5.416570e-02
3.849580e-02
4.244370e-02
4.560960e-02
4.799360e-02
4.959550e-02
5.777420e-02
5.237510e-02
4.694530e-02
4.148490e-02
3.599390e-02
5.825500e-02
5.317480e-02
4.815490e-02
4.319540e-02
3.829630e-02
5.705220e-02
5.272320e-02
4.842500e-02
4.415760e-02
3.992100e-02
5.416570e-02
5.102040e-02
4.775560e-02
4.437150e-02
4.086790e-02
4.959550e-02
4.806620e-02
4.614670e-02
4.383700e-02
4.113710e-02
3.599390e-02
3.484400e-02
3.354180e-02
3.208740e-02
3.048080e-02
3.829630e-02
3.648960e-02
3.468910e-02
3.289490e-02
3.110700e-02
3.992100e-02
3.761880e-02
3.546020e-02
3.344530e-02
3.157410e-02
4.086790e-02
3.823150e-02
3.585510e-02
3.373870e-02
3.188230e-02
4.113710e-02
3.832780e-02
3.587380e-02
3.377500e-02
3.203140e-02
3.048080e-02
2.800870e-02
2.609420e-02
2.473720e-02
2.393780e-02
3.110700e-02
2.892700e-02
2.720500e-02
2.594090e-02
2.513480e-02
3.157410e-02
2.968530e-02
2.815980e-02
2.699750e-02
2.619840e-02
3.188230e-02
3.028360e-02
2.895850e-02
2.790690e-02
2.712880e-02
3.203140e-02
3.072190e-02
2.960120e-02
2.866920e-02
2.792590e-02
2.393780e-02
2.515380e-02
2.570310e-02
2.558580e-02
2.480200e-02
2.513480e-02
2.575630e-02
2.596880e-02
2.577210e-02
2.516630e-02
2.619840e-02
2.629190e-02
2.621120e-02
2.595630e-02
2.552730e-02
2.712880e-02
2.676040e-02
2.643030e-02
2.613850e-02
2.588500e-02
2.792590e-02
2.716190e-02
2.662610e-02
2.631860e-02
2.623920e-02
2.600690e-02
2.602770e-02
2.605860e-02
2.609960e-02
2.615060e-02
2.630990e-02
2.635910e-02
2.641520e-02
2.647820e-02
2.654820e-02
2.659390e-02
2.666980e-02
2.674960e-02
2.683330e-02
2.692100e-02
2.685910e-02
2.695990e-02
2.706180e-02
2.716490e-02
2.726900e-02
2.710540e-02
2.722950e-02
2.735200e-02
2.747290e-02
2.759230e-02
2.615060e-02
2.606210e-02
2.603180e-02
2.605980e-02
2.614600e-02
2.654820e-02
2.649150e-02
2.648570e-02
2.653090e-02
2.662710e-02
2.692100e-02
2.689340e-02
2.691020e-02
2.697130e-02
2.707670e-02
2.726900e-02
2.726800e-02
2.730530e-02
2.738080e-02
2.749470e-02
2.759230e-02
2.761510e-02
2.767090e-02
2.775960e-02
2.788110e-02
2.614600e-02
2.609160e-02
2.616890e-02
2.637810e-02
2.671900e-02
2.662710e-02
2.663100e-02
2.674570e-02
2.697100e-02
2.730710e-02
2.707670e-02
2.712950e-02
2.727520e-02
2.751380e-02
2.784520e-02
2.749470e-02
2.758700e-02
2.775750e-02
2.800630e-02
2.833330e-02
2.788110e-02
2.800350e-02
2.819260e-02
2.844860e-02
2.877140e-02
2.671900e-02
2.721980e-02
2.782640e-02
2.853880e-02
2.935700e-02
2.730710e-02
2.785800e-02
2.850730e-02
2.925510e-02
3.010140e-02
2.784520e-02
2.841200e-02
2.907410e-02
2.983150e-02
3.068410e-02
2.833330e-02
2.888190e-02
2.952680e-02
3.026800e-02
3.110540e-02
2.877140e-02
2.926770e-02
2.986530e-02
3.056450e-02
3.136510e-02
2.935700e-02
3.125490e-02
3.341070e-02
3.582430e-02
3.849580e-02
3.010140e-02
3.179890e-02
3.367860e-02
3.574050e-02
3.798450e-02
3.068410e-02
3.221430e-02
3.386110e-02
3.562470e-02
3.750510e-02
3.110540e-02
3.250090e-02
3.395810e-02
3.547700e-02
3.705740e-02
3.136510e-02
3.265900e-02
3.396960e-02
3.529720e-02
3.664160e-02
3.849580e-02
4.244370e-02
4.560960e-02
4.799360e-02
4.959550e-02
3.798450e-02
4.113270e-02
4.368570e-02
4.564360e-02
4.700640e-02
3.750510e-02
3.999160e-02
4.202550e-02
4.360670e-02
4.473510e-02
3.705740e-02
3.902050e-02
4.062900e-02
4.188270e-02
4.278190e-02
3.664160e-02
3.821930e-02
3.949610e-02
4.047180e-02
4.114650e-02
4.959550e-02
4.806620e-02
4.614670e-02
4.383700e-02
4.113710e-02
4.700640e-02
4.589290e-02
4.442600e-02
4.260570e-02
4.043190e-02
4.473510e-02
4.394710e-02
4.284450e-02
4.142740e-02
3.969590e-02
4.278190e-02
4.222880e-02
4.140230e-02
4.030230e-02
3.892890e-02
4.114650e-02
4.073810e-02
4.009940e-02
3.923030e-02
3.813100e-02
4.113710e-02
3.832780e-02
3.587380e-02
3.377500e-02
3.203140e-02
4.043190e-02
3.801520e-02
3.586090e-02
3.396880e-02
3.233910e-02
3.969590e-02
3.763860e-02
3.576550e-02
3.407660e-02
3.257180e-02
3.892890e-02
3.719790e-02
3.558770e-02
3.409830e-02
3.272960e-02
3.813100e-02
3.669320e-02
3.532750e-02
3.403390e-02
3.281240e-02
3.203140e-02
3.072190e-02
2.960120e-02
2.866920e-02
2.792590e-02
3.233910e-02
3.109030e-02
3.001130e-02
2.910210e-02
2.836270e-02
3.257180e-02
3.138000e-02
3.034010e-02
2.945210e-02
2.871610e-02
3.272960e-02
3.159090e-02
3.058740e-02
2.971910e-02
2.898600e-02
3.281240e-02
3.172300e-02
3.075330e-02
2.990310e-02
2.917260e-02
2.792590e-02
2.716190e-02
2.662610e-02
2.631860e-02
2.623920e-02
2.836270e-02
2.759330e-02
2.702170e-02
2.664790e-02
2.647200e-02
2.871610e-02
2.796320e-02
2.737370e-02
2.694760e-02
2.668470e-02
2.898600e-02
2.827190e-02
2.768240e-02
2.721760e-02
2.687740e-02
2.917260e-02
2.851920e-02
2.794760e-02
2.745790e-02
2.705000e-02
2.710540e-02
2.722950e-02
2.735200e-02
2.747290e-02
2.759230e-02
2.733260e-02
2.747160e-02
2.760860e-02
2.774360e-02
2.787660e-02
2.754220e-02
2.769400e-02
2.784310e-02
2.798950e-02
2.813320e-02
2.773410e-02
2.789660e-02
2.805550e-02
2.821060e-02
2.836210e-02