<?xml version="1.0"?>
<VTKFile type="UnstructuredGrid" version="0.1" byte_order="LittleEndian" compressor="vtkZLibDataCompressor">
<UnstructuredGrid>
<Piece NumberOfPoints="2500" NumberOfCells="1600">
<Points>
<DataArray type="Float32" NumberOfComponents="3" format="ascii">
-3.630000e+00 0.000000e+00 0.000000e+00
-3.448500e+00 0.000000e+00 0.000000e+00
-3.267000e+00 0.000000e+00 0.000000e+00
-3.085500e+00 0.000000e+00 0.000000e+00
-2.904000e+00 0.000000e+00 0.000000e+00
-3.630000e+00 1.282500e-01 0.000000e+00
-3.448500e+00 1.282500e-01 0.000000e+00
-3.267000e+00 1.282500e-01 0.000000e+00
-3.085500e+00 1.282500e-01 0.000000e+00
-2.904000e+00 1.282500e-01 0.000000e+00
-3.630000e+00 2.565000e-01 0.000000e+00
-3.448500e+00 2.565000e-01 0.000000e+00
-3.267000e+00 2.565000e-01 0.000000e+00
-3.085500e+00 2.565000e-01 0.000000e+00
-2.904000e+00 2.565000e-01 0.000000e+00
-3.630000e+00 3.847500e-01 0.000000e+00
-3.448500e+00 3.847500e-01 0.000000e+00
-3.267000e+00 3.847500e-01 0.000000e+00
-3.085500e+00 3.847500e-01 0.000000e+00
-2.904000e+00 3.847500e-01 0.000000e+00
-3.630000e+00 5.130000e-01 0.000000e+00
-3.448500e+00 5.130000e-01 0.000000e+00
-3.267000e+00 5.130000e-01 0.000000e+00
-3.085500e+00 5.130000e-01 0.000000e+00
-2.904000e+00 5.130000e-01 0.000000e+00
-2.904000e+00 0.000000e+00 0.000000e+00
-2.722500e+00 0.000000e+00 0.000000e+00
-2.541000e+00 0.000000e+00 0.000000e+00
-2.359500e+00 0.000000e+00 0.000000e+00
-2.178000e+00 0.000000e+00 0.000000e+00
-2.904000e+00 1.282500e-01 0.000000e+00
-2.722500e+00 1.282500e-01 0.000000e+00
-2.541000e+00 1.282500e-01 0.000000e+00
-2.359500e+00 1.282500e-01 0.000000e+00
-2.178000e+00 1.282500e-01 0.000000e+00
-2.904000e+00 2.565000e-01 0.000000e+00
-2.722500e+00 2.565000e-01 0.000000e+00
-2.541000e+00 2.565000e-01 0.000000e+00
-2.359500e+00 2.565000e-01 0.000000e+00
-2.178000e+00 2.565000e-01 0.000000e+00
-2.904000e+00 3.847500e-01 0.000000e+00
-2.722500e+00 3.847500e-01 0.000000e+00
-2.541000e+00 3.847500e-01 0.000000e+00
-2.359500e+00 3.847500e-01 0.000000e+00
-2.178000e+00 3.847500e-01 0.000000e+00
-2.904000e+00 5.130000e-01 0.000000e+00
-2.722500e+00 5.130000e-01 0.000000e+00
-2.541000e+00 5.130000e-01 0.000000e+00
-2.359500e+00 5.130000e-01 0.000000e+00
-2.178000e+00 5.130000e-01 0.000000e+00
-2.178000e+00 0.000000e+00 0.000000e+00
-1.996500e+00 0.000000e+00 0.000000e+00
-1.815000e+00 0.000000e+00 0.000000e+00
-1.633500e+00 0.000000e+00 0.000000e+00
-1.452000e+00 0.000000e+00 0.000000e+00
-2.178000e+00 1.282500e-01 0.000000e+00
-1.996500e+00 1.282500e-01 0.000000e+00
-1.815000e+00 1.282500e-01 0.000000e+00
-1.633500e+00 1.282500e-01 0.000000e+00
-1.452000e+00 1.282500e-01 0.000000e+00
-2.178000e+00 2.565000e-01 0.000000e+00
-1.996500e+00 2.565000e-01 0.000000e+00
-1.815000e+00 2.565000e-01 0.000000e+00
-1.633500e+00 2.565000e-01 0.000000e+00
-1.452000e+00 2.565000e-01 0.000000e+00
-2.178000e+00 3.847500e-01 0.000000e+00
-1.996500e+00 3.847500e-01 0.000000e+00
-1.815000e+00 3.847500e-01 0.000000e+00
-1.633500e+00 3.847500e-01 0.000000e+00
-1.452000e+00 3.847500e-01 0.000000e+00
-2.178000e+00 5.130000e-01 0.000000e+00
-1.996500e+00 5.130000e-01 0.000000e+00
-1.815000e+00 5.130000e-01 0.000000e+00
-1.633500e+00 5.130000e-01 0.000000e+00
-1.452000e+00 5.130000e-01 0.000000e+00
-1.452000e+00 0.000000e+00 0.000000e+00
-1.270500e+00 0.000000e+00 0.000000e+00
-1.089000e+00 0.000000e+00 0.000000e+00
-9.075000e-01 0.000000e+00 0.000000e+00
-7.260000e-01 0.000000e+00 0.000000e+00
-1.452000e+00 1.282500e-01 0.000000e+00
-1.270500e+00 1.282500e-01 0.000000e+00
-1.089000e+00 1.282500e-01 0.000000e+00
-9.075000e-01 1.282500e-01 0.000000e+00
-7.260000e-01 1.282500e-01 0.000000e+00
-1.452000e+00 2.565000e-01 0.000000e+00
-1.270500e+00 2.565000e-01 0.000000e+00
-1.089000e+00 2.565000e-01 0.000000e+00
-9.075000e-01 2.565000e-01 0.000000e+00
-7.260000e-01 2.565000e-01 0.000000e+00
-1.452000e+00 3.847500e-01 0.000000e+00
-1.270500e+00 3.847500e-01 0.000000e+00
-1.089000e+00 3.847500e-01 0.000000e+00
-9.075000e-01 3.847500e-01 0.000000e+00
-7.260000e-01 3.847500e-01 0.000000e+00
-1.452000e+00 5.130000e-01 0.000000e+00
-1.270500e+00 5.130000e-01 0.000000e+00
-1.089000e+00 5.130000e-01 0.000000e+00
-9.075000e-01 5.130000e-01 0.000000e+00
-7.260000e-01 5.130000e-01 0.000000e+00
-7.260000e-01 0.000000e+00 0.000000e+00
-5.445000e-01 0.000000e+00 0.000000e+00
-3.630000e-01 0.000000e+00 0.000000e+00
-1.815000e-01 0.000000e+00 0.000000e+00
0.000000e+00 0.000000e+00 0.000000e+00
-7.260000e-01 1.282500e-01 0.000000e+00
-5.445000e-01 1.282500e-01 0.000000e+00
-3.630000e-01 1.282500e-01 0.000000e+00
-1.815000e-01 1.282500e-01 0.000000e+00
0.000000e+00 1.282500e-01 0.000000e+00
-7.260000e-01 2.565000e-01 0.000000e+00
-5.445000e-01 2.565000e-01 0.000000e+00
-3.630000e-01 2.565000e-01 0.000000e+00
-1.815000e-01 2.565000e-01 0.000000e+00
0.000000e+00 2.565000e-01 0.000000e+00
-7.260000e-01 3.847500e-01 0.000000e+00
-5.445000e-01 3.847500e-01 0.000000e+00
-3.630000e-01 3.847500e-01 0.000000e+00
-1.815000e-01 3.847500e-01 0.000000e+00
0.000000e+00 3.847500e-01 0.000000e+00
-7.260000e-01 5.130000e-01 0.000000e+00
-5.445000e-01 5.130000e-01 0.000000e+00
-3.630000e-01 5.130000e-01 0.000000e+00
-1.815000e-01 5.130000e-01 0.000000e+00
0.000000e+00 5.130000e-01 0.000000e+00
0.000000e+00 0.000000e+00 0.000000e+00
1.815000e-01 0.000000e+00 0.000000e+00
3.630000e-01 0.000000e+00 0.000000e+00
5.445000e-01 0.000000e+00 0.000000e+00
7.260000e-01 0.000000e+00 0.000000e+00
0.000000e+00 1.282500e-01 0.000000e+00
1.815000e-01 1.282500e-01 0.000000e+00
3.630000e-01 1.282500e-01 0.000000e+00
5.445000e-01 1.282500e-01 0.000000e+00
7.260000e-01 1.282500e-01 0.000000e+00
0.000000e+00 2.565000e-01 0.000000e+00
1.815000e-01 2.565000e-01 0.000000e+00
3.630000e-01 2.565000e-01 0.000000e+00
5.445000e-01 2.565000e-01 0.000000e+00
7.260000e-01 2.565000e-01 0.000000e+00
0.000000e+00 3.847500e-01 0.000000e+00
1.815000e-01 3.847500e-01 0.000000e+00
3.630000e-01 3.847500e-01 0.000000e+00
5.445000e-01 3.847500e-01 0.000000e+00
7.260000e-01 3.847500e-01 0.000000e+00
0.000000e+00 5.130000e-01 0.000000e+00
1.815000e-01 5.130000e-01 0.000000e+00
3.630000e-01 5.130000e-01 0.000000e+00
5.445000e-01 5.130000e-01 0.000000e+00
7.260000e-01 5.130000e-01 0.000000e+00
7.260000e-01 0.000000e+00 0.000000e+00
9.075000e-01 0.000000e+00 0.000000e+00
1.089000e+00 0.000000e+00 0.000000e+00
1.270500e+00 0.000000e+00 0.000000e+00
1.452000e+00 0.000000e+00 0.000000e+00
7.260000e-01 1.282500e-01 0.000000e+00
9.075000e-01 1.282500e-01 0.000000e+00
1.089000e+00 1.282500e-01 0.000000e+00
1.270500e+00 1.282500e-01 0.000000e+00
1.452000e+00 1.282500e-01 0.000000e+00
7.260000e-01 2.565000e-01 0.000000e+00
9.075000e-01 2.565000e-01 0.000000e+00
1.089000e+00 2.565000e-01 0.000000e+00
1.270500e+00 2.565000e-01 0.000000e+00
1.452000e+00 2.565000e-01 0.000000e+00
7.260000e-01 3.847500e-01 0.000000e+00
9.075000e-01 3.847500e-01 0.000000e+00
1.089000e+00 3.847500e-01 0.000000e+00
1.270500e+00 3.847500e-01 0.000000e+00
1.452000e+00 3.847500e-01 0.000000e+00
7.260000e-01 5.130000e-01 0.000000e+00
9.075000e-01 5.130000e-01 0.000000e+00
1.089000e+00 5.130000e-01 0.000000e+00
1.270500e+00 5.130000e-01 0.000000e+00
1.452000e+00 5.130000e-01 0.000000e+00
1.452000e+00 0.000000e+00 0.000000e+00
1.633500e+00 0.000000e+00 0.000000e+00
1.815000e+00 0.000000e+00 0.000000e+00
1.996500e+00 0.000000e+00 0.000000e+00
2.178000e+00 0.000000e+00 0.000000e+00
1.452000e+00 1.282500e-01 0.000000e+00
1.633500e+00 1.282500e-01 0.000000e+00
1.815000e+00 1.282500e-01 0.000000e+00
1.996500e+00 1.282500e-01 0.000000e+00
2.178000e+00 1.282500e-01 0.000000e+00
1.452000e+00 2.565000e-01 0.000000e+00
1.633500e+00 2.565000e-01 0.000000e+00
1.815000e+00 2.565000e-01 0.000000e+00
1.996500e+00 2.565000e-01 0.000000e+00
2.178000e+00 2.565000e-01 0.000000e+00
1.452000e+00 3.847500e-01 0.000000e+00
1.633500e+00 3.847500e-01 0.000000e+00
1.815000e+00 3.847500e-01 0.000000e+00
1.996500e+00 3.847500e-01 0.000000e+00
2.178000e+00 3.847500e-01 0.000000e+00
1.452000e+00 5.130000e-01 0.000000e+00
1.633500e+00 5.130000e-01 0.000000e+00
1.815000e+00 5.130000e-01 0.000000e+00
1.996500e+00 5.130000e-01 0.000000e+00
2.178000e+00 5.130000e-01 0.000000e+00
2.178000e+00 0.000000e+00 0.000000e+00
2.359500e+00 0.000000e+00 0.000000e+00
2.541000e+00 0.000000e+00 0.000000e+00
2.722500e+00 0.000000e+00 0.000000e+00
2.904000e+00 0.000000e+00 0.000000e+00
2.178000e+00 1.282500e-01 0.000000e+00
2.359500e+00 1.282500e-01 0.000000e+00
2.541000e+00 1.282500e-01 0.000000e+00
2.722500e+00 1.282500e-01 0.000000e+00
2.904000e+00 1.282500e-01 0.000000e+00
2.178000e+00 2.565000e-01 0.000000e+00
2.359500e+00 2.565000e-01 0.000000e+00
2.541000e+00 2.565000e-01 0.000000e+00
2.722500e+00 2.565000e-01 0.000000e+00
2.904000e+00 2.565000e-01 0.000000e+00
2.178000e+00 3.847500e-01 0.000000e+00
2.359500e+00 3.847500e-01 0.000000e+00
2.541000e+00 3.847500e-01 0.000000e+00
2.722500e+00 3.847500e-01 0.000000e+00
2.904000e+00 3.847500e-01 0.000000e+00
2.178000e+00 5.130000e-01 0.000000e+00
2.359500e+00 5.130000e-01 0.000000e+00
2.541000e+00 5.130000e-01 0.000000e+00
2.722500e+00 5.130000e-01 0.000000e+00
2.904000e+00 5.130000e-01 0.000000e+00
2.904000e+00 0.000000e+00 0.000000e+00
3.085500e+00 0.000000e+00 0.000000e+00
3.267000e+00 0.000000e+00 0.000000e+00
3.448500e+00 0.000000e+00 0.000000e+00
3.630000e+00 0.000000e+00 0.000000e+00
2.904000e+00 1.282500e-01 0.000000e+00
3.085500e+00 1.282500e-01 0.000000e+00
3.267000e+00 1.282500e-01 0.000000e+00
3.448500e+00 1.282500e-01 0.000000e+00
3.630000e+00 1.282500e-01 0.000000e+00
2.904000e+00 2.565000e-01 0.000000e+00
3.085500e+00 2.565000e-01 0.000000e+00
3.267000e+00 2.565000e-01 0.000000e+00
3.448500e+00 2.565000e-01 0.000000e+00
3.630000e+00 2.565000e-01 0.000000e+00
2.904000e+00 3.847500e-01 0.000000e+00
3.085500e+00 3.847500e-01 0.000000e+00
3.267000e+00 3.847500e-01 0.000000e+00
3.448500e+00 3.847500e-01 0.000000e+00
3.630000e+00 3.847500e-01 0.000000e+00
2.904000e+00 5.130000e-01 0.000000e+00
[...]
<PointData>
<DataArray type="Float32" Name="V1" format="ascii">
0.000000e+00
0.000000e+00
0.000000e+00
0.000000e+00
0.000000e+00
1.264110e-02
1.101220e-02
9.710410e-03
8.735640e-03
8.087930e-03
2.028400e-02
1.818940e-02
1.645010e-02
1.506640e-02
1.403800e-02
2.292870e-02
2.153140e-02
2.021920e-02
1.899210e-02
1.785020e-02
2.057510e-02
2.103820e-02
2.101750e-02
2.051300e-02
1.952460e-02
0.000000e+00
0.000000e+00
0.000000e+00
0.000000e+00
0.000000e+00
8.087930e-03
7.022130e-03
6.142940e-03
5.450370e-03
4.944410e-03
1.403800e-02
1.244400e-02
1.102080e-02
9.768310e-03
8.686560e-03
1.785020e-02
1.626570e-02
1.463360e-02
1.295380e-02
1.122640e-02
1.952460e-02
1.848720e-02
1.698130e-02
1.500690e-02
1.256410e-02
0.000000e+00
0.000000e+00
0.000000e+00
0.000000e+00
0.000000e+00
4.944410e-03
3.919780e-03
3.582460e-03
3.932470e-03
4.969780e-03
8.686560e-03
6.734550e-03
5.890910e-03
6.155620e-03
7.528690e-03
1.122640e-02
8.444320e-03
6.925320e-03
6.669460e-03
7.676740e-03
1.256410e-02
9.049080e-03
6.685720e-03
5.473990e-03
5.413910e-03
0.000000e+00
0.000000e+00
0.000000e+00
0.000000e+00
0.000000e+00
4.969780e-03
3.527170e-03
1.999680e-03
3.873180e-04
-1.309920e-03
7.528690e-03
3.746750e-03
-8.224800e-05
-3.958290e-03
-7.881380e-03
7.676740e-03
6.587320e-04
-6.245790e-03
-1.303680e-02
-1.971440e-02
5.413910e-03
-5.736870e-03
-1.649090e-02
-2.684830e-02
-3.680890e-02
0.000000e+00
0.000000e+00
0.000000e+00
0.000000e+00
0.000000e+00
-1.309920e-03
-1.093890e-02
-2.157690e-02
-3.322390e-02
-4.587980e-02
-7.881380e-03
-2.337830e-02
-3.956130e-02
-5.643040e-02
-7.398560e-02
-1.971440e-02
-3.731810e-02
-5.395310e-02
-6.961950e-02
-8.431730e-02
-3.680890e-02
-5.275830e-02
-6.475250e-02
-7.279130e-02
-7.687490e-02
0.000000e+00
0.000000e+00
0.000000e+00
0.000000e+00
0.000000e+00
-4.587980e-02
-4.207560e-02
-3.733780e-02
-3.166660e-02
-2.506190e-02
-7.398560e-02
-6.721910e-02
-5.895300e-02
-4.918710e-02
-3.792140e-02
-8.431730e-02
-7.543070e-02
-6.484540e-02
-5.256140e-02
-3.857850e-02
-7.687490e-02
-6.671040e-02
-5.501520e-02
-4.178950e-02
-2.703310e-02
0.000000e+00
0.000000e+00
0.000000e+00
0.000000e+00
0.000000e+00
-2.506190e-02
-1.993550e-02
-1.515530e-02
-1.072120e-02
-6.633360e-03
-3.792140e-02
-3.024880e-02
-2.307280e-02
-1.639320e-02
-1.021010e-02
-3.857850e-02
-3.094000e-02
-2.375240e-02
-1.701580e-02
-1.073020e-02
-2.703310e-02
-2.200890e-02
-1.719420e-02
-1.258910e-02
-8.193630e-03
0.000000e+00
0.000000e+00
0.000000e+00
0.000000e+00
0.000000e+00
-6.633360e-03
-1.429440e-03
2.333440e-03
4.655290e-03
5.536090e-03
-1.021010e-02
-1.913750e-03
4.146920e-03
7.971930e-03
9.561270e-03
-1.073020e-02
-1.452930e-03
5.440440e-03
9.949940e-03
1.207560e-02
-8.193630e-03
-4.699210e-05
6.213990e-03
1.058930e-02
1.307900e-02
0.000000e+00
0.000000e+00
0.000000e+00
0.000000e+00
0.000000e+00
5.536090e-03
6.624110e-03
7.595940e-03
8.451580e-03
9.191030e-03
9.561270e-03
1.128690e-02
1.283360e-02
1.420140e-02
1.539030e-02
1.207560e-02
1.398850e-02
1.571310e-02
1.724950e-02
1.859770e-02
1.307900e-02
1.472870e-02
1.623440e-02
1.759590e-02
1.881340e-02
0.000000e+00
0.000000e+00
0.000000e+00
0.000000e+00
0.000000e+00
9.191030e-03
9.859290e-03
1.055760e-02
1.128600e-02
1.204450e-02
1.539030e-02
1.665230e-02
1.787400e-02
1.905540e-02
2.019630e-02
1.859770e-02
2.037920e-02
2.194920e-02
2.330800e-02
2.445540e-02
1.881340e-02
2.103970e-02
2.278320e-02
2.404390e-02
2.482180e-02
2.057510e-02
2.103820e-02
2.101750e-02
2.051300e-02
1.952460e-02
2.078850e-02
2.089600e-02
2.073420e-02
2.030320e-02
1.960280e-02
2.103660e-02
2.086180e-02
2.057750e-02
2.018370e-02
1.968030e-02
2.131930e-02
2.093570e-02
2.054750e-02
2.015460e-02
1.975690e-02
2.163650e-02
2.111760e-02
2.064400e-02
2.021580e-02
1.983280e-02
1.952460e-02
1.848720e-02
1.698130e-02
1.500690e-02
1.256410e-02
1.960280e-02
1.881830e-02
1.751600e-02
1.569580e-02
1.335780e-02
1.968030e-02
1.903110e-02
1.791880e-02
1.634320e-02
1.430430e-02
1.975690e-02
1.912570e-02
1.818980e-02
1.694910e-02
1.540370e-02
1.983280e-02
1.910200e-02
1.832890e-02
1.751350e-02
1.665580e-02
1.256410e-02
9.049080e-03
6.685720e-03
5.473990e-03
5.413910e-03
1.335780e-02
9.229740e-03
6.780100e-03
6.008880e-03
6.916090e-03
1.430430e-02
9.372400e-03
6.968400e-03
7.092320e-03
9.744150e-03
1.540370e-02
9.477070e-03
7.250620e-03
8.724300e-03
1.389810e-02
1.665580e-02
9.543730e-03
7.626740e-03
1.090480e-02
1.937800e-02
5.413910e-03
-5.736870e-03
-1.649090e-02
-2.684830e-02
-3.680890e-02
6.916090e-03
-8.324340e-03
-2.089680e-02
-3.080140e-02
-3.803810e-02
9.744150e-03
-7.686770e-03
-2.103740e-02
-3.030760e-02
-3.549750e-02
1.389810e-02
-3.824180e-03
-1.691250e-02
-2.536670e-02
-2.918700e-02
1.937800e-02
3.263450e-03
-8.522180e-03
-1.597890e-02
-1.910670e-02
-3.680890e-02
-5.275830e-02
-6.475250e-02
-7.279130e-02
-7.687490e-02
-3.803810e-02
-4.947020e-02
-5.961590e-02
-6.847520e-02
-7.604800e-02
-3.549750e-02
-4.148140e-02
-4.816060e-02
-5.553510e-02
-6.360500e-02
-2.918700e-02
-2.879180e-02
-3.038650e-02
-3.397120e-02
-3.954590e-02
-1.910670e-02
-1.140140e-02
-6.293560e-03
-3.783350e-03
-3.870710e-03
-7.687490e-02
-6.671040e-02
-5.501520e-02
-4.178950e-02
-2.703310e-02
-7.604800e-02
-6.551040e-02
-5.325860e-02
-3.929260e-02
-2.361230e-02
-6.360500e-02
-5.421230e-02
-4.332410e-02
-3.094040e-02
-1.706130e-02
-3.954590e-02
-3.281590e-02
-2.521160e-02
-1.673300e-02
-7.380160e-03
-3.870710e-03
-1.321190e-03
1.078950e-03
3.329720e-03
5.431120e-03
-2.703310e-02
-2.200890e-02
-1.719420e-02
-1.258910e-02
-8.193630e-03
-2.361230e-02
-1.761330e-02
-1.288410e-02
-9.424510e-03
-7.234680e-03
-1.706130e-02
-1.098770e-02
-6.907490e-03
-4.820560e-03
-4.726940e-03
-7.380160e-03
-2.132100e-03
7.355440e-04
1.222770e-03
-6.704250e-04
5.431120e-03
8.953590e-03
1.004500e-02
8.705470e-03
4.934870e-03
-8.193630e-03
-4.699210e-05
6.213990e-03
1.058930e-02
1.307900e-02
-7.234680e-03
1.593410e-03
8.168540e-03
1.249070e-02
1.455990e-02
-4.726940e-03
3.951690e-03
1.029690e-02
1.430870e-02
1.598710e-02
-6.704250e-04
7.027850e-03
1.259910e-02
1.604340e-02
1.736060e-02
4.934870e-03
1.082190e-02
1.507510e-02
1.769470e-02
1.868040e-02
1.307900e-02
1.472870e-02
1.623440e-02
1.759590e-02
1.881340e-02
1.455990e-02
1.569160e-02
1.677350e-02
1.780560e-02
1.878780e-02
1.598710e-02
1.667740e-02
1.738770e-02
1.811800e-02
1.886840e-02
1.736060e-02
1.768590e-02
1.807680e-02
1.853330e-02
1.905540e-02
1.868040e-02
1.871730e-02
1.884090e-02
1.905140e-02
1.934870e-02
1.881340e-02
2.103970e-02
2.278320e-02
2.404390e-02
2.482180e-02
1.878780e-02
2.120040e-02
2.301170e-02
2.422160e-02
2.483000e-02
1.886840e-02
2.140130e-02
2.322740e-02
2.434670e-02
2.475920e-02
1.905540e-02
2.164240e-02
2.343030e-02
2.441920e-02
2.460920e-02
1.934870e-02
2.192360e-02
2.362040e-02
2.443930e-02
2.438010e-02
2.163650e-02
2.111760e-02
2.064400e-02
2.021580e-02
1.983280e-02
2.197900e-02
2.146480e-02
2.104030e-02
2.070520e-02
2.045970e-02
2.233590e-02
2.185310e-02
2.148770e-02
2.123990e-02
2.110950e-02
2.270730e-02
2.228230e-02
2.198650e-02
2.181980e-02
2.178220e-02
2.309330e-02
2.275270e-02
2.253650e-02
2.244490e-02
2.247780e-02
1.983280e-02
1.910200e-02
1.832890e-02
1.751350e-02
1.665580e-02
2.045970e-02
1.950130e-02
1.881640e-02
1.840520e-02
1.826750e-02
2.110950e-02
1.998580e-02
1.938130e-02
1.929590e-02
1.972960e-02
2.178220e-02
2.055560e-02
2.002340e-02
2.018560e-02
2.104210e-02
2.247780e-02
2.121080e-02
2.074290e-02
2.107430e-02
2.220480e-02
1.665580e-02
9.543730e-03
7.626740e-03
1.090480e-02
1.937800e-02
1.826750e-02
1.163540e-02
9.947210e-03
1.320280e-02
2.140240e-02
1.972960e-02
1.406960e-02
1.273330e-02
1.572050e-02
2.303130e-02
2.104210e-02
1.684640e-02
1.598490e-02
1.845770e-02
2.426470e-02
2.220480e-02
1.996560e-02
1.970220e-02
2.141450e-02
2.510270e-02
1.937800e-02
3.263450e-03
-8.522180e-03
-1.597890e-02
-1.910670e-02
2.140240e-02
1.249220e-02
5.252470e-03
-3.168220e-04
-4.215670e-03
2.303130e-02
1.980700e-02
1.650470e-02
1.312440e-02
9.666120e-03
2.426470e-02
2.520790e-02
2.523460e-02
2.434480e-02
2.253860e-02
2.510270e-02
2.869490e-02
3.144210e-02
3.334440e-02
3.440190e-02
-1.910670e-02
-1.140140e-02
-6.293560e-03
-3.783350e-03
-3.870710e-03
-4.215670e-03
7.797270e-03
1.808440e-02
2.664560e-02
3.348100e-02
9.666120e-03
2.385570e-02
3.686940e-02
4.870710e-02
5.936890e-02
2.253860e-02
3.677390e-02
5.006140e-02
6.240110e-02
7.379300e-02
3.440190e-02
4.655200e-02
5.766060e-02
6.772770e-02
7.675320e-02
-3.870710e-03
-1.321190e-03
1.078950e-03
3.329720e-03
5.431120e-03
3.348100e-02
2.681660e-02
2.153640e-02
1.764040e-02
1.512850e-02
5.936890e-02
4.752230e-02
3.775170e-02
3.005700e-02
2.443830e-02
7.379300e-02
6.079580e-02
4.972470e-02
4.057960e-02
3.336050e-02
7.675320e-02
6.663720e-02
5.745560e-02
4.920820e-02
4.189510e-02
5.431120e-03
8.953590e-03
1.004500e-02
8.705470e-03
4.934870e-03
1.512850e-02
1.699890e-02
1.681960e-02
1.459050e-02
1.031170e-02
2.443830e-02
2.447360e-02
2.293140e-02
1.981200e-02
1.511510e-02
3.336050e-02
3.137740e-02
2.838050e-02
2.436980e-02
1.934520e-02
4.189510e-02
3.771060e-02
3.316690e-02
2.826400e-02
2.300190e-02
4.934870e-03
1.082190e-02
1.507510e-02
1.769470e-02
1.868040e-02
1.031170e-02
1.423660e-02
1.711970e-02
1.896100e-02
1.976040e-02
1.511510e-02
1.737170e-02
1.907560e-02
2.022670e-02
2.082520e-02
1.934520e-02
2.022720e-02
2.094280e-02
2.149200e-02
2.187470e-02
2.300190e-02
2.280320e-02
2.272140e-02
2.275670e-02
2.290900e-02
1.868040e-02
1.871730e-02
1.884090e-02
1.905140e-02
1.934870e-02
1.976040e-02
1.979780e-02
1.985420e-02
1.992960e-02
2.002400e-02
2.082520e-02
2.084320e-02
2.083040e-02
2.078670e-02
2.071210e-02
2.187470e-02
2.185360e-02
2.176960e-02
2.162280e-02
2.141300e-02
2.290900e-02
2.282890e-02
2.267180e-02
2.243780e-02
2.212680e-02
1.934870e-02
2.192360e-02
2.362040e-02
2.443930e-02
2.438010e-02
2.002400e-02
2.225040e-02
2.372550e-02
2.444930e-02
2.442190e-02
2.071210e-02
2.259110e-02
2.384310e-02
2.446830e-02
2.446650e-02
2.141300e-02
2.294570e-02
2.397340e-02
2.449610e-02
2.451390e-02
2.212680e-02
2.331430e-02
2.411640e-02
2.453290e-02
2.456390e-02
2.309330e-02
2.275270e-02
2.253650e-02
2.244490e-02
2.247780e-02
2.348320e-02
2.319020e-02
2.303080e-02
2.300510e-02
2.311310e-02
2.386930e-02
2.362130e-02
2.351310e-02
2.354490e-02
2.371670e-02
2.425160e-02
2.404600e-02
2.398360e-02
2.406440e-02
2.428850e-02
2.463000e-02
2.446420e-02
2.444200e-02
2.456350e-02
2.482860e-02
2.247780e-02
2.121080e-02
2.074290e-02
2.107430e-02
2.220480e-02
2.311310e-02
2.204490e-02
2.169000e-02
2.204840e-02
2.312010e-02
2.371670e-02
2.287450e-02
2.264160e-02
2.301790e-02
2.400350e-02
2.428850e-02
2.369980e-02
2.359800e-02
2.398300e-02
2.485500e-02
2.482860e-02
2.452060e-02
2.455900e-02
2.494360e-02
2.567470e-02
2.220480e-02
1.996560e-02
1.970220e-02
2.141450e-02
2.510270e-02
2.312010e-02
2.204620e-02
2.231620e-02
2.392990e-02
2.688750e-02
2.400350e-02
2.378880e-02
2.444370e-02
2.596830e-02
2.836250e-02
2.485500e-02
2.519320e-02
2.608470e-02
2.752960e-02
2.952780e-02
2.567470e-02
2.625950e-02
2.723920e-02
2.861380e-02
3.038330e-02
2.510270e-02
2.869490e-02
3.144210e-02
3.334440e-02
3.440190e-02
2.688750e-02
3.063560e-02
3.399860e-02
3.697650e-02
3.956930e-02
2.836250e-02
3.217900e-02
3.584330e-02
3.935520e-02
4.271490e-02
2.952780e-02
3.332520e-02
3.697610e-02
4.048060e-02
4.383850e-02
3.038330e-02
3.407400e-02
3.739710e-02
4.035250e-02
4.294020e-02
3.440190e-02
4.655200e-02
5.766060e-02
6.772770e-02
7.675320e-02
3.956930e-02
5.046630e-02
6.014560e-02
6.860710e-02
7.585100e-02
4.271490e-02
5.208190e-02
6.019350e-02
6.704940e-02
7.264990e-02
4.383850e-02
5.139890e-02
5.780420e-02
6.305450e-02
6.714980e-02
4.294020e-02
4.841720e-02
5.297790e-02
5.662250e-02
5.935080e-02
7.675320e-02
6.663720e-02
5.745560e-02
4.920820e-02
4.189510e-02
7.585100e-02
6.648930e-02
5.793780e-02
5.019640e-02
4.326510e-02
7.264990e-02
6.469910e-02
5.737200e-02
5.066860e-02
4.458890e-02
6.714980e-02
6.126660e-02
5.575830e-02
5.062500e-02
4.586660e-02
5.935080e-02
5.619170e-02
5.309660e-02
5.006550e-02
4.709830e-02
4.189510e-02
3.771060e-02
3.316690e-02
2.826400e-02
2.300190e-02
4.326510e-02
3.874960e-02
3.422440e-02
2.968940e-02
2.514470e-02
4.458890e-02
3.987200e-02
3.538390e-02
3.112460e-02
2.709420e-02
4.586660e-02
4.107770e-02
3.664540e-02
3.256970e-02
2.885050e-02
4.709830e-02
4.236690e-02
3.800900e-02
3.402460e-02
3.041370e-02
2.300190e-02
2.280320e-02
2.272140e-02
2.275670e-02
2.290900e-02
2.514470e-02
2.471680e-02
2.437890e-02
2.413080e-02
2.397270e-02
2.709420e-02
2.642640e-02
2.584300e-02
2.534410e-02
2.492970e-02
2.885050e-02
2.793180e-02
2.711380e-02
2.639660e-02
2.578020e-02
3.041370e-02
2.923310e-02
2.819130e-02
2.728830e-02
2.652420e-02
2.290900e-02
2.282890e-02
2.267180e-02
2.243780e-02
2.212680e-02
2.397270e-02
2.373190e-02
2.344620e-02
2.311560e-02
2.274020e-02
2.492970e-02
2.454780e-02
2.415340e-02
2.374650e-02
2.332710e-02
2.578020e-02
2.527670e-02
2.479340e-02
2.433040e-02
2.388760e-02
2.652420e-02
2.591850e-02
2.536620e-02
2.486730e-02
2.442160e-02
2.212680e-02
2.331430e-02
2.411640e-02
2.453290e-02
2.456390e-02
2.274020e-02
2.372410e-02
2.436910e-02
2.467520e-02
2.464240e-02
2.332710e-02
2.411860e-02
2.461500e-02
2.481660e-02
2.472310e-02
2.388760e-02
2.449780e-02
2.485430e-02
2.495700e-02
2.480600e-02
2.442160e-02
2.486190e-02
2.508680e-02
2.509660e-02
2.489110e-02
2.463000e-02
2.446420e-02
2.444200e-02
2.456350e-02
2.482860e-02
2.499690e-02
2.487950e-02
2.489440e-02
2.504160e-02
2.532100e-02
2.534870e-02
2.527910e-02
2.532880e-02
2.549760e-02
2.578570e-02
2.568540e-02
2.566290e-02
2.574500e-02
2.593160e-02
2.622270e-02
2.600690e-02
2.603100e-02
2.614320e-02
2.634350e-02
2.663190e-02
2.482860e-02
2.452060e-02
2.455900e-02
2.494360e-02
2.567470e-02
2.532100e-02
2.518090e-02
2.532160e-02
2.574320e-02
2.644560e-02
2.578570e-02
2.578120e-02
2.600400e-02
2.645410e-02
2.713150e-02
2.622270e-02
2.632160e-02
2.660620e-02
2.707650e-02
2.773250e-02
2.663190e-02
2.680200e-02
2.712810e-02
2.761030e-02
2.824850e-02
2.567470e-02
2.625950e-02
2.723920e-02
2.861380e-02
3.038330e-02
2.644560e-02
2.720580e-02
2.823720e-02
2.953980e-02
3.111360e-02
2.713150e-02
2.802390e-02
2.908730e-02
3.032160e-02
3.172700e-02
2.773250e-02
2.871380e-02
2.978940e-02
3.095920e-02
3.222330e-02
2.824850e-02
2.927550e-02
3.034360e-02
3.145270e-02
3.260270e-02
3.038330e-02
3.407400e-02
3.739710e-02
4.035250e-02
4.294020e-02
3.111360e-02
3.451660e-02
3.755990e-02
4.024320e-02
4.256680e-02
3.172700e-02
3.478760e-02
3.751940e-02
3.992230e-02
4.199630e-02
3.222330e-02
3.488690e-02
3.727570e-02
3.938970e-02
4.122880e-02
3.260270e-02
3.481460e-02
3.682880e-02
3.864540e-02
4.026430e-02
4.294020e-02
4.841720e-02
5.297790e-02
5.662250e-02
5.935080e-02
4.256680e-02
4.680150e-02
5.034770e-02
5.320540e-02
5.537460e-02
4.199630e-02
4.524080e-02
4.796780e-02
5.017720e-02
5.186900e-02
4.122880e-02
4.373520e-02
4.583830e-02
4.753780e-02
4.883390e-02
4.026430e-02
4.228470e-02
4.395910e-02
4.528730e-02
4.626940e-02
5.935080e-02
5.619170e-02
5.309660e-02
5.006550e-02
4.709830e-02
5.537460e-02
5.295850e-02
5.048000e-02
4.793910e-02
4.533590e-02
5.186900e-02
5.006950e-02
4.813470e-02
4.606450e-02
4.385890e-02
4.883390e-02
4.752490e-02
4.606070e-02
4.444150e-02
4.266730e-02
4.626940e-02
4.532450e-02
4.425810e-02
4.307030e-02
4.176110e-02
4.709830e-02
4.236690e-02
3.800900e-02
3.402460e-02
3.041370e-02
4.533590e-02
4.127050e-02
3.758210e-02
3.427060e-02
3.133600e-02
4.385890e-02
4.042430e-02
3.732420e-02
3.455860e-02
3.212750e-02
4.266730e-02
3.982820e-02
3.723540e-02
3.488870e-02
3.278820e-02
4.176110e-02
3.948230e-02
3.731550e-02
3.526070e-02
3.331790e-02
3.041370e-02
2.923310e-02
2.819130e-02
2.728830e-02
2.652420e-02
3.133600e-02
3.013830e-02
2.904380e-02
2.805250e-02
2.716450e-02
3.212750e-02
3.087810e-02
2.972440e-02
2.866630e-02
2.770380e-02
3.278820e-02
3.145270e-02
3.023310e-02
2.912960e-02
2.814190e-02
3.331790e-02
3.186190e-02
3.057010e-02
2.944240e-02
2.847900e-02
2.652420e-02
2.591850e-02
2.536620e-02
2.486730e-02
2.442160e-02
2.716450e-02
2.652980e-02
2.595930e-02
2.545290e-02
2.501070e-02
2.770380e-02
2.705740e-02
2.648040e-02
2.597280e-02
2.553460e-02
2.814190e-02
2.750130e-02
2.692960e-02
2.642700e-02
2.599330e-02
2.847900e-02
2.786140e-02
2.730690e-02
2.681530e-02
2.638680e-02
2.442160e-02
2.486190e-02
2.508680e-02
2.509660e-02
2.489110e-02
2.501070e-02
2.521430e-02
2.528290e-02
2.521660e-02
2.501530e-02
2.553460e-02
2.552970e-02
2.546320e-02
2.533520e-02
2.514560e-02
2.599330e-02
2.580810e-02
2.562780e-02
2.545240e-02
2.528200e-02
2.638680e-02
2.604950e-02
2.577670e-02
2.556830e-02
2.542430e-02
2.600690e-02
2.603100e-02
2.614320e-02
2.634350e-02
2.663190e-02
2.630990e-02
2.636960e-02
2.650640e-02
2.672010e-02
2.701080e-02
2.659390e-02
2.668560e-02
2.684400e-02
2.706910e-02
2.736100e-02
2.685910e-02
2.697890e-02
2.715610e-02
2.739060e-02
2.768250e-02
2.710540e-02
2.724950e-02
2.744260e-02
2.768450e-02
2.797530e-02
2.663190e-02
2.680200e-02
2.712810e-02
2.761030e-02
2.824850e-02
2.701080e-02
2.723370e-02
2.758760e-02
2.807270e-02
2.868890e-02
2.736100e-02
2.762570e-02
2.799870e-02
2.848000e-02
2.906960e-02
2.768250e-02
2.797810e-02
2.836130e-02
2.883220e-02
2.939070e-02
2.797530e-02
2.829080e-02
2.867550e-02
2.912920e-02
2.965210e-02
2.824850e-02
2.927550e-02
3.034360e-02
3.145270e-02
3.260270e-02
2.868890e-02
2.968510e-02
3.070600e-02
3.175170e-02
3.282230e-02
2.906960e-02
3.002080e-02
3.098470e-02
3.196130e-02
3.295050e-02
2.939070e-02
3.028280e-02
3.117970e-02
3.208120e-02
3.298750e-02
2.965210e-02
3.047110e-02
3.129090e-02
3.211170e-02
3.293330e-02
3.260270e-02
3.481460e-02
3.682880e-02
3.864540e-02
4.026430e-02
3.282230e-02
3.474500e-02
3.649080e-02
3.805970e-02
3.945160e-02
3.295050e-02
3.461850e-02
3.612840e-02
3.748030e-02
3.867410e-02
3.298750e-02
3.443510e-02
3.574160e-02
3.690710e-02
3.793170e-02
3.293330e-02
3.419470e-02
3.533030e-02
3.634020e-02
3.722440e-02
4.026430e-02
4.228470e-02
4.395910e-02
4.528730e-02
4.626940e-02
3.945160e-02
4.114240e-02
4.252800e-02
4.360850e-02
4.438380e-02
3.867410e-02
4.007410e-02
4.120990e-02
4.208130e-02
4.268840e-02
3.793170e-02
3.907990e-02
4.000460e-02
4.070570e-02
4.118330e-02
3.722440e-02
3.815970e-02
3.891220e-02
3.948170e-02
3.986830e-02
4.626940e-02
4.532450e-02
4.425810e-02
4.307030e-02
4.176110e-02
4.438380e-02
4.356580e-02
4.263570e-02
4.159350e-02
4.043930e-02
4.268840e-02
4.200720e-02
4.122090e-02
4.032960e-02
3.933340e-02
4.118330e-02
4.064860e-02
4.001370e-02
3.927860e-02
3.844330e-02
3.986830e-02
3.949020e-02
3.901430e-02
3.844050e-02
3.776900e-02
4.176110e-02
3.948230e-02
3.731550e-02
3.526070e-02
3.331790e-02
4.043930e-02
3.848830e-02
3.664590e-02
3.491210e-02
3.328690e-02
3.933340e-02
3.767290e-02
3.610670e-02
3.463470e-02
3.325690e-02
3.844330e-02
3.703610e-02
3.569780e-02
3.442840e-02
3.322800e-02
3.776900e-02
3.657780e-02
3.541920e-02
3.429330e-02
3.320020e-02
3.331790e-02
3.186190e-02
3.057010e-02
2.944240e-02
2.847900e-02
3.328690e-02
3.198090e-02
3.080050e-02
2.974560e-02
2.881620e-02
3.325690e-02
3.206920e-02
3.098040e-02
2.999050e-02
2.909960e-02
3.322800e-02
3.212660e-02
3.110960e-02
3.017710e-02
2.932910e-02
3.320020e-02
3.215320e-02
3.118830e-02
3.030550e-02
2.950480e-02
2.847900e-02
2.786140e-02
2.730690e-02
2.681530e-02
2.638680e-02
2.881620e-02
2.819130e-02
2.762690e-02
2.712290e-02
2.667940e-02
2.909960e-02
2.847070e-02
2.789910e-02
2.738480e-02
2.692790e-02
2.932910e-02
2.869950e-02
2.812350e-02
2.760110e-02
2.713240e-02
2.950480e-02
2.887770e-02
2.830000e-02
2.777170e-02
2.729270e-02
2.638680e-02
2.604950e-02
2.577670e-02
2.556830e-02
2.542430e-02
2.667940e-02
2.630950e-02
2.600030e-02
2.575180e-02
2.556410e-02
2.692790e-02
2.653720e-02
2.620140e-02
2.592060e-02
2.569460e-02
2.713240e-02
2.673270e-02
2.638010e-02
2.607440e-02
2.581580e-02
2.729270e-02
2.689600e-02
2.653630e-02
2.621350e-02
2.592770e-02
2.710540e-02
2.724950e-02
2.744260e-02
2.768450e-02
2.797530e-02
2.733260e-02
2.749370e-02
2.769690e-02
2.794210e-02
2.822950e-02
2.754220e-02
2.771770e-02
2.792860e-02
2.817490e-02
2.845660e-02
2.773410e-02
2.792150e-02
2.813770e-02
2.838280e-02