<?xml version="1.0"?>
<VTKFile type="UnstructuredGrid" version="0.1" byte_order="LittleEndian" compressor="vtkZLibDataCompressor">
<UnstructuredGrid>
<Piece NumberOfPoints="2500" NumberOfCells="1600">
<Points>
<DataArray type="Float32" NumberOfComponents="3" format="ascii">
-3.630000e+00 0.000000e+00 0.000000e+00
-3.448500e+00 0.000000e+00 0.000000e+00
-3.267000e+00 0.000000e+00 0.000000e+00
-3.085500e+00 0.000000e+00 0.000000e+00
-2.904000e+00 0.000000e+00 0.000000e+00
-3.630000e+00 1.282500e-01 0.000000e+00
-3.448500e+00 1.282500e-01 0.000000e+00
-3.267000e+00 1.282500e-01 0.000000e+00
-3.085500e+00 1.282500e-01 0.000000e+00
-2.904000e+00 1.282500e-01 0.000000e+00
-3.630000e+00 2.565000e-01 0.000000e+00
-3.448500e+00 2.565000e-01 0.000000e+00
-3.267000e+00 2.565000e-01 0.000000e+00
-3.085500e+00 2.565000e-01 0.000000e+00
-2.904000e+00 2.565000e-01 0.000000e+00
-3.630000e+00 3.847500e-01 0.000000e+00
-3.448500e+00 3.847500e-01 0.000000e+00
-3.267000e+00 3.847500e-01 0.000000e+00
-3.085500e+00 3.847500e-01 0.000000e+00
-2.904000e+00 3.847500e-01 0.000000e+00
-3.630000e+00 5.130000e-01 0.000000e+00
-3.448500e+00 5.130000e-01 0.000000e+00
-3.267000e+00 5.130000e-01 0.000000e+00
-3.085500e+00 5.130000e-01 0.000000e+00
-2.904000e+00 5.130000e-01 0.000000e+00
-2.904000e+00 0.000000e+00 0.000000e+00
-2.722500e+00 0.000000e+00 0.000000e+00
-2.541000e+00 0.000000e+00 0.000000e+00
-2.359500e+00 0.000000e+00 0.000000e+00
-2.178000e+00 0.000000e+00 0.000000e+00
-2.904000e+00 1.282500e-01 0.000000e+00
-2.722500e+00 1.282500e-01 0.000000e+00
-2.541000e+00 1.282500e-01 0.000000e+00
-2.359500e+00 1.282500e-01 0.000000e+00
-2.178000e+00 1.282500e-01 0.000000e+00
-2.904000e+00 2.565000e-01 0.000000e+00
-2.722500e+00 2.565000e-01 0.000000e+00
-2.541000e+00 2.565000e-01 0.000000e+00
-2.359500e+00 2.565000e-01 0.000000e+00
-2.178000e+00 2.565000e-01 0.000000e+00
-2.904000e+00 3.847500e-01 0.000000e+00
-2.722500e+00 3.847500e-01 0.000000e+00
-2.541000e+00 3.847500e-01 0.000000e+00
-2.359500e+00 3.847500e-01 0.000000e+00
-2.178000e+00 3.847500e-01 0.000000e+00
-2.904000e+00 5.130000e-01 0.000000e+00
-2.722500e+00 5.130000e-01 0.000000e+00
-2.541000e+00 5.130000e-01 0.000000e+00
-2.359500e+00 5.130000e-01 0.000000e+00
-2.178000e+00 5.130000e-01 0.000000e+00
-2.178000e+00 0.000000e+00 0.000000e+00
-1.996500e+00 0.000000e+00 0.000000e+00
-1.815000e+00 0.000000e+00 0.000000e+00
-1.633500e+00 0.000000e+00 0.000000e+00
-1.452000e+00 0.000000e+00 0.000000e+00
-2.178000e+00 1.282500e-01 0.000000e+00
-1.996500e+00 1.282500e-01 0.000000e+00
-1.815000e+00 1.282500e-01 0.000000e+00
-1.633500e+00 1.282500e-01 0.000000e+00
-1.452000e+00 1.282500e-01 0.000000e+00
-2.178000e+00 2.565000e-01 0.000000e+00
-1.996500e+00 2.565000e-01 0.000000e+00
-1.815000e+00 2.565000e-01 0.000000e+00
-1.633500e+00 2.565000e-01 0.000000e+00
-1.452000e+00 2.565000e-01 0.000000e+00
-2.178000e+00 3.847500e-01 0.000000e+00
-1.996500e+00 3.847500e-01 0.000000e+00
-1.815000e+00 3.847500e-01 0.000000e+00
-1.633500e+00 3.847500e-01 0.000000e+00
-1.452000e+00 3.847500e-01 0.000000e+00
-2.178000e+00 5.130000e-01 0.000000e+00
-1.996500e+00 5.130000e-01 0.000000e+00
-1.815000e+00 5.130000e-01 0.000000e+00
-1.633500e+00 5.130000e-01 0.000000e+00
-1.452000e+00 5.130000e-01 0.000000e+00
-1.452000e+00 0.000000e+00 0.000000e+00
-1.270500e+00 0.000000e+00 0.000000e+00
-1.089000e+00 0.000000e+00 0.000000e+00
-9.075000e-01 0.000000e+00 0.000000e+00
-7.260000e-01 0.000000e+00 0.000000e+00
-1.452000e+00 1.282500e-01 0.000000e+00
-1.270500e+00 1.282500e-01 0.000000e+00
-1.089000e+00 1.282500e-01 0.000000e+00
-9.075000e-01 1.282500e-01 0.000000e+00
-7.260000e-01 1.282500e-01 0.000000e+00
-1.452000e+00 2.565000e-01 0.000000e+00
-1.270500e+00 2.565000e-01 0.000000e+00
-1.089000e+00 2.565000e-01 0.000000e+00
-9.075000e-01 2.565000e-01 0.000000e+00
-7.260000e-01 2.565000e-01 0.000000e+00
-1.452000e+00 3.847500e-01 0.000000e+00
-1.270500e+00 3.847500e-01 0.000000e+00
-1.089000e+00 3.847500e-01 0.000000e+00
-9.075000e-01 3.847500e-01 0.000000e+00
-7.260000e-01 3.847500e-01 0.000000e+00
-1.452000e+00 5.130000e-01 0.000000e+00
-1.270500e+00 5.130000e-01 0.000000e+00
-1.089000e+00 5.130000e-01 0.000000e+00
-9.075000e-01 5.130000e-01 0.000000e+00
-7.260000e-01 5.130000e-01 0.000000e+00
-7.260000e-01 0.000000e+00 0.000000e+00
-5.445000e-01 0.000000e+00 0.000000e+00
-3.630000e-01 0.000000e+00 0.000000e+00
-1.815000e-01 0.000000e+00 0.000000e+00
0.000000e+00 0.000000e+00 0.000000e+00
-7.260000e-01 1.282500e-01 0.000000e+00
-5.445000e-01 1.282500e-01 0.000000e+00
-3.630000e-01 1.282500e-01 0.000000e+00
-1.815000e-01 1.282500e-01 0.000000e+00
0.000000e+00 1.282500e-01 0.000000e+00
-7.260000e-01 2.565000e-01 0.000000e+00
-5.445000e-01 2.565000e-01 0.000000e+00
-3.630000e-01 2.565000e-01 0.000000e+00
-1.815000e-01 2.565000e-01 0.000000e+00
0.000000e+00 2.565000e-01 0.000000e+00
-7.260000e-01 3.847500e-01 0.000000e+00
-5.445000e-01 3.847500e-01 0.000000e+00
-3.630000e-01 3.847500e-01 0.000000e+00
-1.815000e-01 3.847500e-01 0.000000e+00
0.000000e+00 3.847500e-01 0.000000e+00
-7.260000e-01 5.130000e-01 0.000000e+00
-5.445000e-01 5.130000e-01 0.000000e+00
-3.630000e-01 5.130000e-01 0.000000e+00
-1.815000e-01 5.130000e-01 0.000000e+00
0.000000e+00 5.130000e-01 0.000000e+00
0.000000e+00 0.000000e+00 0.000000e+00
1.815000e-01 0.000000e+00 0.000000e+00
3.630000e-01 0.000000e+00 0.000000e+00
5.445000e-01 0.000000e+00 0.000000e+00
7.260000e-01 0.000000e+00 0.000000e+00
0.000000e+00 1.282500e-01 0.000000e+00
1.815000e-01 1.282500e-01 0.000000e+00
3.630000e-01 1.282500e-01 0.000000e+00
5.445000e-01 1.282500e-01 0.000000e+00
7.260000e-01 1.282500e-01 0.000000e+00
0.000000e+00 2.565000e-01 0.000000e+00
1.815000e-01 2.565000e-01 0.000000e+00
3.630000e-01 2.565000e-01 0.000000e+00
5.445000e-01 2.565000e-01 0.000000e+00
7.260000e-01 2.565000e-01 0.000000e+00
0.000000e+00 3.847500e-01 0.000000e+00
1.815000e-01 3.847500e-01 0.000000e+00
3.630000e-01 3.847500e-01 0.000000e+00
5.445000e-01 3.847500e-01 0.000000e+00
7.260000e-01 3.847500e-01 0.000000e+00
0.000000e+00 5.130000e-01 0.000000e+00
1.815000e-01 5.130000e-01 0.000000e+00
3.630000e-01 5.130000e-01 0.000000e+00
5.445000e-01 5.130000e-01 0.000000e+00
7.260000e-01 5.130000e-01 0.000000e+00
7.260000e-01 0.000000e+00 0.000000e+00
9.075000e-01 0.000000e+00 0.000000e+00
1.089000e+00 0.000000e+00 0.000000e+00
1.270500e+00 0.000000e+00 0.000000e+00
1.452000e+00 0.000000e+00 0.000000e+00
7.260000e-01 1.282500e-01 0.000000e+00
9.075000e-01 1.282500e-01 0.000000e+00
1.089000e+00 1.282500e-01 0.000000e+00
1.270500e+00 1.282500e-01 0.000000e+00
1.452000e+00 1.282500e-01 0.000000e+00
7.260000e-01 2.565000e-01 0.000000e+00
9.075000e-01 2.565000e-01 0.000000e+00
1.089000e+00 2.565000e-01 0.000000e+00
1.270500e+00 2.565000e-01 0.000000e+00
1.452000e+00 2.565000e-01 0.000000e+00
7.260000e-01 3.847500e-01 0.000000e+00
9.075000e-01 3.847500e-01 0.000000e+00
1.089000e+00 3.847500e-01 0.000000e+00
1.270500e+00 3.847500e-01 0.000000e+00
1.452000e+00 3.847500e-01 0.000000e+00
7.260000e-01 5.130000e-01 0.000000e+00
9.075000e-01 5.130000e-01 0.000000e+00
1.089000e+00 5.130000e-01 0.000000e+00
1.270500e+00 5.130000e-01 0.000000e+00
1.452000e+00 5.130000e-01 0.000000e+00
1.452000e+00 0.000000e+00 0.000000e+00
1.633500e+00 0.000000e+00 0.000000e+00
1.815000e+00 0.000000e+00 0.000000e+00
1.996500e+00 0.000000e+00 0.000000e+00
2.178000e+00 0.000000e+00 0.000000e+00
1.452000e+00 1.282500e-01 0.000000e+00
1.633500e+00 1.282500e-01 0.000000e+00
1.815000e+00 1.282500e-01 0.000000e+00
1.996500e+00 1.282500e-01 0.000000e+00
2.178000e+00 1.282500e-01 0.000000e+00
1.452000e+00 2.565000e-01 0.000000e+00
1.633500e+00 2.565000e-01 0.000000e+00
1.815000e+00 2.565000e-01 0.000000e+00
1.996500e+00 2.565000e-01 0.000000e+00
2.178000e+00 2.565000e-01 0.000000e+00
1.452000e+00 3.847500e-01 0.000000e+00
1.633500e+00 3.847500e-01 0.000000e+00
1.815000e+00 3.847500e-01 0.000000e+00
1.996500e+00 3.847500e-01 0.000000e+00
2.178000e+00 3.847500e-01 0.000000e+00
1.452000e+00 5.130000e-01 0.000000e+00
1.633500e+00 5.130000e-01 0.000000e+00
1.815000e+00 5.130000e-01 0.000000e+00
1.996500e+00 5.130000e-01 0.000000e+00
2.178000e+00 5.130000e-01 0.000000e+00
2.178000e+00 0.000000e+00 0.000000e+00
2.359500e+00 0.000000e+00 0.000000e+00
2.541000e+00 0.000000e+00 0.000000e+00
2.722500e+00 0.000000e+00 0.000000e+00
2.904000e+00 0.000000e+00 0.000000e+00
2.178000e+00 1.282500e-01 0.000000e+00
2.359500e+00 1.282500e-01 0.000000e+00
2.541000e+00 1.282500e-01 0.000000e+00
2.722500e+00 1.282500e-01 0.000000e+00
2.904000e+00 1.282500e-01 0.000000e+00
2.178000e+00 2.565000e-01 0.000000e+00
2.359500e+00 2.565000e-01 0.000000e+00
2.541000e+00 2.565000e-01 0.000000e+00
2.722500e+00 2.565000e-01 0.000000e+00
2.904000e+00 2.565000e-01 0.000000e+00
2.178000e+00 3.847500e-01 0.000000e+00
2.359500e+00 3.847500e-01 0.000000e+00
2.541000e+00 3.847500e-01 0.000000e+00
2.722500e+00 3.847500e-01 0.000000e+00
2.904000e+00 3.847500e-01 0.000000e+00
2.178000e+00 5.130000e-01 0.000000e+00
2.359500e+00 5.130000e-01 0.000000e+00
2.541000e+00 5.130000e-01 0.000000e+00
2.722500e+00 5.130000e-01 0.000000e+00
2.904000e+00 5.130000e-01 0.000000e+00
2.904000e+00 0.000000e+00 0.000000e+00
3.085500e+00 0.000000e+00 0.000000e+00
3.267000e+00 0.000000e+00 0.000000e+00
3.448500e+00 0.000000e+00 0.000000e+00
3.630000e+00 0.000000e+00 0.000000e+00
2.904000e+00 1.282500e-01 0.000000e+00
3.085500e+00 1.282500e-01 0.000000e+00
3.267000e+00 1.282500e-01 0.000000e+00
3.448500e+00 1.282500e-01 0.000000e+00
3.630000e+00 1.282500e-01 0.000000e+00
2.904000e+00 2.565000e-01 0.000000e+00
3.085500e+00 2.565000e-01 0.000000e+00
3.267000e+00 2.565000e-01 0.000000e+00
3.448500e+00 2.565000e-01 0.000000e+00
3.630000e+00 2.565000e-01 0.000000e+00
2.904000e+00 3.847500e-01 0.000000e+00
3.085500e+00 3.847500e-01 0.000000e+00
3.267000e+00 3.847500e-01 0.000000e+00
3.448500e+00 3.847500e-01 0.000000e+00
3.630000e+00 3.847500e-01 0.000000e+00
2.904000e+00 5.130000e-01 0.000000e+00
[...]
<PointData>
<DataArray type="Float32" Name="V1" format="ascii">
0.000000e+00
0.000000e+00
0.000000e+00
0.000000e+00
0.000000e+00
1.264110e-02
1.149790e-02
1.057890e-02
9.884380e-03
9.414160e-03
2.028400e-02
1.884090e-02
1.758510e-02
1.651660e-02
1.563540e-02
2.292870e-02
2.202920e-02
2.101860e-02
1.989680e-02
1.866380e-02
2.057510e-02
2.106270e-02
2.087920e-02
2.002480e-02
1.849930e-02
0.000000e+00
0.000000e+00
0.000000e+00
0.000000e+00
0.000000e+00
9.414160e-03
8.756070e-03
7.721740e-03
6.311170e-03
4.524350e-03
1.563540e-02
1.461730e-02
1.296900e-02
1.069050e-02
7.781990e-03
1.866380e-02
1.758360e-02
1.574170e-02
1.313810e-02
9.772910e-03
1.849930e-02
1.765500e-02
1.603990e-02
1.365390e-02
1.049710e-02
0.000000e+00
0.000000e+00
0.000000e+00
0.000000e+00
0.000000e+00
4.524350e-03
2.051530e-03
5.292830e-04
-4.239630e-05
3.364940e-04
7.781990e-03
3.585220e-03
1.071520e-03
2.408810e-04
1.093300e-03
9.772910e-03
4.601070e-03
1.626710e-03
8.498320e-04
2.270430e-03
1.049710e-02
5.099070e-03
2.194860e-03
1.784460e-03
3.867870e-03
0.000000e+00
0.000000e+00
0.000000e+00
0.000000e+00
0.000000e+00
3.364940e-04
-6.645380e-03
-1.364960e-02
-2.067600e-02
-2.772480e-02
1.093300e-03
-1.096070e-02
-2.277900e-02
-3.436180e-02
-4.570880e-02
2.270430e-03
-1.294600e-02
-2.738850e-02
-4.105710e-02
-5.395200e-02
3.867870e-03
-1.260120e-02
-2.747790e-02
-4.076220e-02
-5.245420e-02
0.000000e+00
0.000000e+00
0.000000e+00
0.000000e+00
0.000000e+00
-2.772480e-02
-3.333110e-02
-3.951830e-02
-4.628650e-02
-5.363560e-02
-4.570880e-02
-5.542420e-02
-6.572610e-02
-7.661450e-02
-8.808940e-02
-5.395200e-02
-6.627940e-02
-7.862340e-02
-9.098410e-02
-1.033610e-01
-5.245420e-02
-6.589650e-02
-7.821020e-02
-8.939530e-02
-9.945180e-02
0.000000e+00
0.000000e+00
0.000000e+00
0.000000e+00
0.000000e+00
-5.363560e-02
-5.047270e-02
-4.472060e-02
-3.637930e-02
-2.544880e-02
-8.808940e-02
-8.145850e-02
-7.124530e-02
-5.745000e-02
-4.007240e-02
-1.033610e-01
-9.295730e-02
-7.957410e-02
-6.321200e-02
-4.387080e-02
-9.945180e-02
-8.496910e-02
-6.970700e-02
-5.366530e-02
-3.684410e-02
0.000000e+00
0.000000e+00
0.000000e+00
0.000000e+00
0.000000e+00
-2.544880e-02
-1.970680e-02
-1.466820e-02
-1.033300e-02
-6.701280e-03
-4.007240e-02
-3.082450e-02
-2.285440e-02
-1.616220e-02
-1.074780e-02
-4.387080e-02
-3.335310e-02
-2.455860e-02
-1.748740e-02
-1.213950e-02
-3.684410e-02
-2.729260e-02
-1.978080e-02
-1.430880e-02
-1.087640e-02
0.000000e+00
0.000000e+00
0.000000e+00
0.000000e+00
0.000000e+00
-6.701280e-03
-1.214920e-03
2.710620e-03
5.075350e-03
5.879270e-03
-1.074780e-02
-1.800580e-03
4.636090e-03
8.562210e-03
9.977800e-03
-1.213950e-02
-1.756980e-03
5.776380e-03
1.046060e-02
1.229560e-02
-1.087640e-02
-1.084110e-03
6.131510e-03
1.077040e-02
1.283270e-02
0.000000e+00
0.000000e+00
0.000000e+00
0.000000e+00
0.000000e+00
5.879270e-03
7.210340e-03
8.404130e-03
9.460650e-03
1.037990e-02
9.977800e-03
1.206290e-02
1.394020e-02
1.560980e-02
1.707160e-02
1.229560e-02
1.455770e-02
1.660830e-02
1.844740e-02
2.007510e-02
1.283270e-02
1.469470e-02
1.640830e-02
1.797350e-02
1.939040e-02
0.000000e+00
0.000000e+00
0.000000e+00
0.000000e+00
0.000000e+00
1.037990e-02
1.107110e-02
1.184610e-02
1.270520e-02
1.364810e-02
1.707160e-02
1.831630e-02
1.960590e-02
2.094060e-02
2.232030e-02
2.007510e-02
2.173560e-02
2.327940e-02
2.470640e-02
2.601660e-02
1.939040e-02
2.132920e-02
2.286650e-02
2.400240e-02
2.473690e-02
2.057510e-02
2.106270e-02
2.087920e-02
2.002480e-02
1.849930e-02
2.078850e-02
2.054900e-02
2.002950e-02
1.923010e-02
1.815090e-02
2.103660e-02
2.038750e-02
1.970600e-02
1.899220e-02
1.824610e-02
2.131930e-02
2.057820e-02
1.990880e-02
1.931100e-02
1.878490e-02
2.163650e-02
2.112110e-02
2.063780e-02
2.018660e-02
1.976740e-02
1.849930e-02
1.765500e-02
1.603990e-02
1.365390e-02
1.049710e-02
1.815090e-02
1.715970e-02
1.575120e-02
1.392530e-02
1.168200e-02
1.824610e-02
1.710900e-02
1.588300e-02
1.456810e-02
1.316430e-02
1.878490e-02
1.750290e-02
1.643540e-02
1.558240e-02
1.494390e-02
1.976740e-02
1.834140e-02
1.740830e-02
1.696810e-02
1.702090e-02
1.049710e-02
5.099070e-03
2.194860e-03
1.784460e-03
3.867870e-03
1.168200e-02
6.438060e-03
4.041600e-03
4.492660e-03
7.791240e-03
1.316430e-02
7.935200e-03
5.977560e-03
7.291370e-03
1.187670e-02
1.494390e-02
9.590500e-03
8.002730e-03
1.018060e-02
1.612410e-02
1.702090e-02
1.140400e-02
1.011710e-02
1.316040e-02
2.053360e-02
3.867870e-03
-1.260120e-02
-2.747790e-02
-4.076220e-02
-5.245420e-02
7.791240e-03
-6.274050e-03
-1.845510e-02
-2.875200e-02
-3.716460e-02
1.187670e-02
-7.778950e-05
-9.776100e-03
-1.721830e-02
-2.240430e-02
1.612410e-02
5.987610e-03
-1.440820e-03
-6.161160e-03
-8.173430e-03
2.053360e-02
1.192210e-02
6.550720e-03
4.419370e-03
5.528090e-03
-5.245420e-02
-6.589650e-02
-7.821020e-02
-8.939530e-02
-9.945180e-02
-3.716460e-02
-4.910190e-02
-6.200370e-02
-7.587000e-02
-9.070080e-02
-2.240430e-02
-3.147140e-02
-4.267600e-02
-5.601790e-02
-7.149720e-02
-8.173430e-03
-1.300500e-02
-2.022690e-02
-2.983890e-02
-4.184100e-02
5.528090e-03
6.297250e-03
5.343560e-03
2.667030e-03
-1.732350e-03
-9.945180e-02
-8.496910e-02
-6.970700e-02
-5.366530e-02
-3.684410e-02
-9.070080e-02
-7.629390e-02
-6.128400e-02
-4.567100e-02
-2.945490e-02
-7.149720e-02
-5.910060e-02
-4.632230e-02
-3.316230e-02
-1.962060e-02
-4.184100e-02
-3.338920e-02
-2.482190e-02
-1.613930e-02
-7.341410e-03
-1.732350e-03
8.403490e-04
3.217100e-03
5.397910e-03
7.382780e-03
-3.684410e-02
-2.729260e-02
-1.978080e-02
-1.430880e-02
-1.087640e-02
-2.945490e-02
-2.077720e-02
-1.463290e-02
-1.102200e-02
-9.944410e-03
-1.962060e-02
-1.245610e-02
-8.089270e-03
-6.520100e-03
-7.748610e-03
-7.341410e-03
-2.329300e-03
-1.498700e-04
-8.031090e-04
-4.289020e-03
7.382780e-03
9.603200e-03
9.185270e-03
6.128980e-03
4.343540e-04
-1.087640e-02
-1.084110e-03
6.131510e-03
1.077040e-02
1.283270e-02
-9.944410e-03
7.243710e-04
8.287320e-03
1.274440e-02
1.409570e-02
-7.748610e-03
3.027320e-03
1.049500e-02
1.465450e-02
1.550580e-02
-4.289020e-03
5.824740e-03
1.275470e-02
1.650070e-02
1.706300e-02
4.343540e-04
9.116620e-03
1.506620e-02
1.828300e-02
1.876720e-02
1.283270e-02
1.469470e-02
1.640830e-02
1.797350e-02
1.939040e-02
1.409570e-02
1.512260e-02
1.621500e-02
1.737310e-02
1.859670e-02
1.550580e-02
1.585730e-02
1.643430e-02
1.723690e-02
1.826500e-02
1.706300e-02
1.689880e-02
1.706610e-02
1.756490e-02
1.839520e-02
1.876720e-02
1.824710e-02
1.811050e-02
1.835720e-02
1.898730e-02
1.939040e-02
2.132920e-02
2.286650e-02
2.400240e-02
2.473690e-02
1.859670e-02
2.064260e-02
2.218750e-02
2.323130e-02
2.377400e-02
1.826500e-02
2.041430e-02
2.196340e-02
2.291230e-02
2.326100e-02
1.839520e-02
2.064420e-02
2.219430e-02
2.304550e-02
2.319760e-02
1.898730e-02
2.133240e-02
2.288030e-02
2.363080e-02
2.358410e-02
2.163650e-02
2.112110e-02
2.063780e-02
2.018660e-02
1.976740e-02
2.197900e-02
2.141730e-02
2.097930e-02
2.066500e-02
2.047420e-02
2.233590e-02
2.177590e-02
2.139760e-02
2.120110e-02
2.118630e-02
2.270730e-02
2.219680e-02
2.189270e-02
2.179500e-02
2.190370e-02
2.309330e-02
2.268000e-02
2.246450e-02
2.244660e-02
2.262650e-02
1.976740e-02
1.834140e-02
1.740830e-02
1.696810e-02
1.702090e-02
2.047420e-02
1.895060e-02
1.817050e-02
1.813390e-02
1.884070e-02
2.118630e-02
1.964280e-02
1.900390e-02
1.926950e-02
2.043970e-02
2.190370e-02
2.041790e-02
1.990830e-02
2.037500e-02
2.181800e-02
2.262650e-02
2.127590e-02
2.088390e-02
2.145040e-02
2.297540e-02
1.702090e-02
1.140400e-02
1.011710e-02
1.316040e-02
2.053360e-02
1.884070e-02
1.355400e-02
1.256560e-02
1.587540e-02
2.348350e-02
2.043970e-02
1.580130e-02
1.513140e-02
1.842990e-02
2.569700e-02
2.181800e-02
1.814580e-02
1.781440e-02
2.082390e-02
2.717400e-02
2.297540e-02
2.058750e-02
2.061480e-02
2.305720e-02
2.791470e-02
2.053360e-02
1.192210e-02
6.550720e-03
4.419370e-03
5.528090e-03
2.348350e-02
1.754790e-02
1.469670e-02
1.493010e-02
1.824790e-02
2.569700e-02
2.231670e-02
2.158470e-02
2.350080e-02
2.806520e-02
2.717400e-02
2.622870e-02
2.721450e-02
3.013150e-02
3.497970e-02
2.791470e-02
2.928380e-02
3.158630e-02
3.482230e-02
3.899170e-02
5.528090e-03
6.297250e-03
5.343560e-03
2.667030e-03
-1.732350e-03
1.824790e-02
2.540770e-02
3.147430e-02
3.644760e-02
4.032770e-02
2.806520e-02
3.956240e-02
5.021330e-02
6.001770e-02
6.897560e-02
3.497970e-02
4.876130e-02
6.156050e-02
7.337710e-02
8.421130e-02
3.899170e-02
5.300440e-02
6.551590e-02
7.652600e-02
8.603490e-02
-1.732350e-03
8.403490e-04
3.217100e-03
5.397910e-03
7.382780e-03
4.032770e-02
3.342460e-02
2.775300e-02
2.331310e-02
2.010480e-02
6.897560e-02
5.674010e-02
4.633380e-02
3.775700e-02
3.100940e-02
8.421130e-02
7.078690e-02
5.895960e-02
4.872940e-02
4.009640e-02
8.603490e-02
7.556500e-02
6.563020e-02
5.623050e-02
4.736590e-02
7.382780e-03
9.603200e-03
9.185270e-03
6.128980e-03
4.343540e-04
2.010480e-02
1.960880e-02
1.720670e-02
1.289840e-02
6.683930e-03
3.100940e-02
2.804350e-02
2.391860e-02
1.863490e-02
1.219220e-02
4.009640e-02
3.490710e-02
2.932120e-02
2.333860e-02
1.695920e-02
4.736590e-02
4.019980e-02
3.341430e-02
2.700940e-02
2.098500e-02
4.343540e-04
9.116620e-03
1.506620e-02
1.828300e-02
1.876720e-02
6.683930e-03
1.282540e-02
1.707100e-02
1.942060e-02
1.987420e-02
1.219220e-02
1.622820e-02
1.903950e-02
2.062610e-02
2.098800e-02
1.695920e-02
1.932490e-02
2.097170e-02
2.189960e-02
2.210850e-02
2.098500e-02
2.211550e-02
2.286750e-02
2.324100e-02
2.323590e-02
1.876720e-02
1.824710e-02
1.811050e-02
1.835720e-02
1.898730e-02
1.987420e-02
1.933450e-02
1.909060e-02
1.914240e-02
1.949000e-02
2.098800e-02
2.042540e-02
2.008540e-02
1.996820e-02
2.007360e-02
2.210850e-02
2.151980e-02
2.109510e-02
2.083460e-02
2.073820e-02
2.323590e-02
2.261770e-02
2.211950e-02
2.174160e-02
2.148380e-02
1.898730e-02
2.133240e-02
2.288030e-02
2.363080e-02
2.358410e-02
1.949000e-02
2.158000e-02
2.296040e-02
2.363120e-02
2.359230e-02
2.007360e-02
2.190850e-02
2.311860e-02
2.370370e-02
2.366390e-02
2.073820e-02
2.231800e-02
2.335470e-02
2.384830e-02
2.379870e-02
2.148380e-02
2.280840e-02
2.366880e-02
2.406500e-02
2.399700e-02
2.309330e-02
2.268000e-02
2.246450e-02
2.244660e-02
2.262650e-02
2.348320e-02
2.314290e-02
2.298950e-02
2.302320e-02
2.324390e-02
2.386930e-02
2.359760e-02
2.350030e-02
2.357750e-02
2.382930e-02
2.425160e-02
2.404410e-02
2.399680e-02
2.410960e-02
2.438260e-02
2.463000e-02
2.448250e-02
2.447900e-02
2.461940e-02
2.490380e-02
2.262650e-02
2.127590e-02
2.088390e-02
2.145040e-02
2.297540e-02
2.324390e-02
2.216490e-02
2.190810e-02
2.247330e-02
2.386060e-02
2.382930e-02
2.302330e-02
2.289620e-02
2.344800e-02
2.467880e-02
2.438260e-02
2.385090e-02
2.384830e-02
2.437470e-02
2.543020e-02
2.490380e-02
2.464790e-02
2.476440e-02
2.525330e-02
2.611460e-02
2.297540e-02
2.058750e-02
2.061480e-02
2.305720e-02
2.791470e-02
2.386060e-02
2.253400e-02
2.291680e-02
2.500900e-02
2.881070e-02
2.467880e-02
2.422610e-02
2.489910e-02
2.669780e-02
2.962230e-02
2.543020e-02
2.566390e-02
2.656180e-02
2.812360e-02
3.034950e-02
2.611460e-02
2.684750e-02
2.790480e-02
2.928640e-02
3.099240e-02
2.791470e-02
2.928380e-02
3.158630e-02
3.482230e-02
3.899170e-02
2.881070e-02
3.133700e-02
3.429080e-02
3.767230e-02
4.148130e-02
2.962230e-02
3.287940e-02
3.619200e-02
3.956000e-02
4.298360e-02
3.034950e-02
3.391110e-02
3.728980e-02
4.048560e-02
4.349840e-02
3.099240e-02
3.443210e-02
3.758430e-02
4.044890e-02
4.302590e-02
3.899170e-02
5.300440e-02
6.551590e-02
7.652600e-02
8.603490e-02
4.148130e-02
5.358410e-02
6.446410e-02
7.412130e-02
8.255570e-02
4.298360e-02
5.301590e-02
6.204150e-02
7.006010e-02
7.707190e-02
4.349840e-02
5.130000e-02
5.824800e-02
6.434250e-02
6.958340e-02
4.302590e-02
4.843620e-02
5.308370e-02
5.696830e-02
6.009020e-02
8.603490e-02
7.556500e-02
6.563020e-02
5.623050e-02
4.736590e-02
8.255570e-02
7.318050e-02
6.418160e-02
5.555910e-02
4.731300e-02
7.707190e-02
6.927670e-02
6.174160e-02
5.446650e-02
4.745140e-02
6.958340e-02
6.385380e-02
5.831010e-02
5.295250e-02
4.778100e-02
6.009020e-02
5.691150e-02
5.388720e-02
5.101730e-02
4.830180e-02
4.736590e-02
4.019980e-02
3.341430e-02
2.700940e-02
2.098500e-02
4.731300e-02
4.071760e-02
3.460810e-02
2.898460e-02
2.384710e-02
4.745140e-02
4.134160e-02
3.576860e-02
3.073240e-02
2.623310e-02
4.778100e-02
4.207180e-02
3.689570e-02
3.225280e-02
2.814300e-02
4.830180e-02
4.290820e-02
3.798950e-02
3.354570e-02
2.957690e-02
2.098500e-02
2.211550e-02
2.286750e-02
2.324100e-02
2.323590e-02
2.384710e-02
2.434010e-02
2.458800e-02
2.459080e-02
2.434850e-02
2.623310e-02
2.621400e-02
2.605650e-02
2.576080e-02
2.532670e-02
2.814300e-02
2.773730e-02
2.727330e-02
2.675100e-02
2.617040e-02
2.957690e-02
2.891000e-02
2.823820e-02
2.756140e-02
2.687970e-02
2.323590e-02
2.261770e-02
2.211950e-02
2.174160e-02
2.148380e-02
2.434850e-02
2.361090e-02
2.299060e-02
2.248760e-02
2.210200e-02
2.532670e-02
2.449750e-02
2.378610e-02
2.319260e-02
2.271700e-02
2.617040e-02
2.527730e-02
2.450590e-02
2.385650e-02
2.332890e-02
2.687970e-02
2.595030e-02
2.515020e-02
2.447920e-02
2.393750e-02
2.148380e-02
2.280840e-02
2.366880e-02
2.406500e-02
2.399700e-02
2.210200e-02
2.325640e-02
2.398180e-02
2.427840e-02
2.414610e-02
2.271700e-02
2.370130e-02
2.429260e-02
2.449110e-02
2.429660e-02
2.332890e-02
2.414310e-02
2.460110e-02
2.470290e-02
2.444850e-02
2.393750e-02
2.458180e-02
2.490730e-02
2.491400e-02
2.460190e-02
2.463000e-02
2.448250e-02
2.447900e-02
2.461940e-02
2.490380e-02
2.499690e-02
2.489560e-02
2.492820e-02
2.509470e-02
2.539510e-02
2.534870e-02
2.529190e-02
2.535790e-02
2.554650e-02
2.585790e-02
2.568540e-02
2.567150e-02
2.576800e-02
2.597490e-02
2.629220e-02
2.600690e-02
2.603420e-02
2.615850e-02
2.637990e-02
2.669820e-02
2.490380e-02
2.464790e-02
2.476440e-02
2.525330e-02
2.611460e-02
2.539510e-02
2.532320e-02
2.553120e-02
2.601900e-02
2.678670e-02
2.585790e-02
2.593630e-02
2.622020e-02
2.670970e-02
2.740470e-02
2.629220e-02
2.648720e-02
2.683150e-02
2.732520e-02
2.796840e-02
2.669820e-02
2.697580e-02
2.736490e-02
2.786560e-02
2.847790e-02
2.611460e-02
2.684750e-02
2.790480e-02
2.928640e-02
3.099240e-02
2.678670e-02
2.776590e-02
2.890990e-02
3.021880e-02
3.169250e-02
2.740470e-02
2.852980e-02
2.971330e-02
3.095540e-02
3.225600e-02
2.796840e-02
2.913910e-02
3.031510e-02
3.149630e-02
3.268270e-02
2.847790e-02
2.959390e-02
3.071510e-02
3.184140e-02
3.297290e-02
3.099240e-02
3.443210e-02
3.758430e-02
4.044890e-02
4.302590e-02
3.169250e-02
3.481310e-02
3.766590e-02
4.025090e-02
4.256810e-02
3.225600e-02
3.504570e-02
3.760270e-02
3.992690e-02
4.201840e-02
3.268270e-02
3.512980e-02
3.739450e-02
3.947690e-02
4.137690e-02
3.297290e-02
3.506550e-02
3.704140e-02
3.890080e-02
4.064340e-02
4.302590e-02
4.843620e-02
5.308370e-02
5.696830e-02
6.009020e-02
4.256810e-02
4.687380e-02
5.059760e-02
5.373940e-02
5.629930e-02
4.201840e-02
4.542840e-02
4.838440e-02
5.088640e-02
5.293440e-02
4.137690e-02
4.409980e-02
4.644390e-02
4.840920e-02
4.999580e-02
4.064340e-02
4.288810e-02
4.477620e-02
4.630790e-02
4.748320e-02
6.009020e-02
5.691150e-02
5.388720e-02
5.101730e-02
4.830180e-02
5.629930e-02
5.401670e-02
5.163470e-02
4.915320e-02
4.657210e-02
5.293440e-02
5.127930e-02
4.939780e-02
4.728980e-02
4.495530e-02
4.999580e-02
4.869930e-02
4.717640e-02
4.542710e-02
4.345130e-02
4.748320e-02
4.627680e-02
4.497070e-02
4.356520e-02
4.206010e-02
4.830180e-02
4.290820e-02
3.798950e-02
3.354570e-02
2.957690e-02
4.657210e-02
4.185720e-02
3.765350e-02
3.396100e-02
3.077960e-02
4.495530e-02
4.098480e-02
3.747790e-02
3.443460e-02
3.185480e-02
4.345130e-02
4.029100e-02
3.746270e-02
3.496650e-02
3.280240e-02
4.206010e-02
3.977570e-02
3.760790e-02
3.555680e-02
3.362230e-02
2.957690e-02
2.891000e-02
2.823820e-02
2.756140e-02
2.687970e-02
3.077960e-02
2.992270e-02
2.907100e-02
2.822480e-02
2.738380e-02
3.185480e-02
3.077650e-02
2.974240e-02
2.875250e-02
2.780690e-02
3.280240e-02
3.147160e-02
3.025240e-02
2.914470e-02
2.814870e-02
3.362230e-02
3.200780e-02
3.060080e-02
2.940130e-02
2.840940e-02
2.687970e-02
2.595030e-02
2.515020e-02
2.447920e-02
2.393750e-02
2.738380e-02
2.654770e-02
2.581390e-02
2.518250e-02
2.465340e-02
2.780690e-02
2.706600e-02
2.640020e-02
2.580950e-02
2.529390e-02
2.814870e-02
2.750510e-02
2.690900e-02
2.636030e-02
2.585900e-02
2.840940e-02
2.786510e-02
2.734020e-02
2.683480e-02
2.634880e-02
2.393750e-02
2.458180e-02
2.490730e-02
2.491400e-02
2.460190e-02
2.465340e-02
2.499390e-02
2.513490e-02
2.507620e-02
2.481800e-02
2.529390e-02
2.536430e-02
2.534410e-02
2.523310e-02
2.503140e-02
2.585900e-02
2.569310e-02
2.553490e-02
2.538460e-02
2.524200e-02
2.634880e-02
2.598010e-02
2.570740e-02
2.553060e-02
2.544980e-02
2.600690e-02
2.603420e-02
2.615850e-02
2.637990e-02
2.669820e-02
2.630990e-02
2.637390e-02
2.652230e-02
2.675480e-02
2.707160e-02
2.659390e-02
2.669040e-02
2.685930e-02
2.710050e-02
2.741400e-02
2.685910e-02
2.698370e-02
2.716960e-02
2.741680e-02
2.772520e-02
2.710540e-02
2.725380e-02
2.745330e-02
2.770380e-02
2.800550e-02
2.669820e-02
2.697580e-02
2.736490e-02
2.786560e-02
2.847790e-02
2.707160e-02
2.739600e-02
2.781230e-02
2.832040e-02
2.892030e-02
2.741400e-02
2.777160e-02
2.820430e-02
2.871190e-02
2.929460e-02
2.772520e-02
2.810250e-02
2.854090e-02
2.904030e-02
2.960080e-02
2.800550e-02
2.838880e-02
2.882220e-02
2.930550e-02
2.983890e-02
2.847790e-02
2.959390e-02
3.071510e-02
3.184140e-02
3.297290e-02
2.892030e-02
2.997450e-02
3.102920e-02
3.208430e-02
3.314000e-02
2.929460e-02
3.028790e-02
3.127610e-02
3.225930e-02
3.323750e-02
2.960080e-02
3.053400e-02
3.145580e-02
3.236630e-02
3.326540e-02
2.983890e-02
3.071300e-02
3.156840e-02
3.240540e-02
3.322380e-02
3.297290e-02
3.506550e-02
3.704140e-02
3.890080e-02
4.064340e-02
3.314000e-02
3.500200e-02
3.675160e-02
3.838880e-02
3.991350e-02
3.323750e-02
3.488420e-02
3.642340e-02
3.785500e-02
3.917910e-02
3.326540e-02
3.471220e-02
3.605690e-02
3.729950e-02
3.844010e-02
3.322380e-02
3.448590e-02
3.565200e-02
3.672220e-02
3.769650e-02
4.064340e-02
4.288810e-02
4.477620e-02
4.630790e-02
4.748320e-02
3.991350e-02
4.177270e-02
4.331810e-02
4.454970e-02
4.546750e-02
3.917910e-02
4.069330e-02
4.194030e-02
4.292020e-02
4.363300e-02
3.844010e-02
3.964980e-02
4.064300e-02
4.141950e-02
4.197960e-02
3.769650e-02
3.864230e-02
3.942600e-02
4.004760e-02
4.050730e-02
4.748320e-02
4.627680e-02
4.497070e-02
4.356520e-02
4.206010e-02
4.546750e-02
4.440100e-02
4.324580e-02
4.200210e-02
4.066980e-02
4.363300e-02
4.274570e-02
4.177210e-02
4.071230e-02
3.956630e-02
4.197960e-02
4.131090e-02
4.054970e-02
3.969600e-02
3.874990e-02
4.050730e-02
4.009650e-02
3.957850e-02
3.895310e-02
3.822030e-02
4.206010e-02
3.977570e-02
3.760790e-02
3.555680e-02
3.362230e-02
4.066980e-02
3.870680e-02
3.686580e-02
3.514680e-02
3.354980e-02
3.956630e-02
3.787520e-02
3.629860e-02
3.483660e-02
3.348910e-02
3.874990e-02
3.728080e-02
3.590620e-02
3.462610e-02
3.344030e-02
3.822030e-02
3.692380e-02
3.568880e-02
3.451530e-02
3.340340e-02
3.362230e-02
3.200780e-02
3.060080e-02
2.940130e-02
2.840940e-02
3.354980e-02
3.214100e-02
3.088070e-02
2.976880e-02
2.880520e-02
3.348910e-02
3.224080e-02
3.110000e-02
3.006670e-02
2.914100e-02
3.344030e-02
3.230700e-02
3.125870e-02
3.029530e-02
2.941690e-02
3.340340e-02
3.233970e-02
3.135670e-02
3.045440e-02
2.963270e-02
2.840940e-02
2.786510e-02
2.734020e-02
2.683480e-02
2.634880e-02
2.880520e-02
2.823320e-02
2.768830e-02
2.717070e-02
2.668030e-02
2.914100e-02
2.854570e-02
2.798370e-02
2.745510e-02
2.695990e-02
2.941690e-02
2.880260e-02
2.822630e-02
2.768800e-02
2.718760e-02
2.963270e-02
2.900390e-02
2.841610e-02
2.786920e-02
2.736340e-02
2.634880e-02
2.598010e-02
2.570740e-02
2.553060e-02
2.544980e-02
2.668030e-02
2.629520e-02
2.599120e-02
2.576840e-02
2.562670e-02
2.695990e-02
2.657150e-02
2.624700e-02
2.598660e-02
2.579020e-02
2.718760e-02
2.680900e-02
2.647480e-02
2.618520e-02
2.594020e-02
2.736340e-02
2.700770e-02
2.667460e-02
2.636430e-02
2.607670e-02
2.710540e-02
2.725380e-02
2.745330e-02
2.770380e-02
2.800550e-02
2.733260e-02
2.749510e-02
2.770210e-02
2.795340e-02
2.824930e-02
2.754220e-02
2.771610e-02
2.792800e-02
2.817800e-02
2.846610e-02
2.773410e-02
2.791660e-02
2.813110e-02
2.837760e-02
2.865610e-02