<?xml version="1.0"?>
<VTKFile type="UnstructuredGrid" version="0.1" byte_order="LittleEndian" compressor="vtkZLibDataCompressor">
<UnstructuredGrid>
<Piece NumberOfPoints="2500" NumberOfCells="1600">
<Points>
<DataArray type="Float32" NumberOfComponents="3" format="ascii">
-3.630000e+00 0.000000e+00 0.000000e+00
-3.448500e+00 0.000000e+00 0.000000e+00
-3.267000e+00 0.000000e+00 0.000000e+00
-3.085500e+00 0.000000e+00 0.000000e+00
-2.904000e+00 0.000000e+00 0.000000e+00
-3.630000e+00 1.282500e-01 0.000000e+00
-3.448500e+00 1.282500e-01 0.000000e+00
-3.267000e+00 1.282500e-01 0.000000e+00
-3.085500e+00 1.282500e-01 0.000000e+00
-2.904000e+00 1.282500e-01 0.000000e+00
-3.630000e+00 2.565000e-01 0.000000e+00
-3.448500e+00 2.565000e-01 0.000000e+00
-3.267000e+00 2.565000e-01 0.000000e+00
-3.085500e+00 2.565000e-01 0.000000e+00
-2.904000e+00 2.565000e-01 0.000000e+00
-3.630000e+00 3.847500e-01 0.000000e+00
-3.448500e+00 3.847500e-01 0.000000e+00
-3.267000e+00 3.847500e-01 0.000000e+00
-3.085500e+00 3.847500e-01 0.000000e+00
-2.904000e+00 3.847500e-01 0.000000e+00
-3.630000e+00 5.130000e-01 0.000000e+00
-3.448500e+00 5.130000e-01 0.000000e+00
-3.267000e+00 5.130000e-01 0.000000e+00
-3.085500e+00 5.130000e-01 0.000000e+00
-2.904000e+00 5.130000e-01 0.000000e+00
-2.904000e+00 0.000000e+00 0.000000e+00
-2.722500e+00 0.000000e+00 0.000000e+00
-2.541000e+00 0.000000e+00 0.000000e+00
-2.359500e+00 0.000000e+00 0.000000e+00
-2.178000e+00 0.000000e+00 0.000000e+00
-2.904000e+00 1.282500e-01 0.000000e+00
-2.722500e+00 1.282500e-01 0.000000e+00
-2.541000e+00 1.282500e-01 0.000000e+00
-2.359500e+00 1.282500e-01 0.000000e+00
-2.178000e+00 1.282500e-01 0.000000e+00
-2.904000e+00 2.565000e-01 0.000000e+00
-2.722500e+00 2.565000e-01 0.000000e+00
-2.541000e+00 2.565000e-01 0.000000e+00
-2.359500e+00 2.565000e-01 0.000000e+00
-2.178000e+00 2.565000e-01 0.000000e+00
-2.904000e+00 3.847500e-01 0.000000e+00
-2.722500e+00 3.847500e-01 0.000000e+00
-2.541000e+00 3.847500e-01 0.000000e+00
-2.359500e+00 3.847500e-01 0.000000e+00
-2.178000e+00 3.847500e-01 0.000000e+00
-2.904000e+00 5.130000e-01 0.000000e+00
-2.722500e+00 5.130000e-01 0.000000e+00
-2.541000e+00 5.130000e-01 0.000000e+00
-2.359500e+00 5.130000e-01 0.000000e+00
-2.178000e+00 5.130000e-01 0.000000e+00
-2.178000e+00 0.000000e+00 0.000000e+00
-1.996500e+00 0.000000e+00 0.000000e+00
-1.815000e+00 0.000000e+00 0.000000e+00
-1.633500e+00 0.000000e+00 0.000000e+00
-1.452000e+00 0.000000e+00 0.000000e+00
-2.178000e+00 1.282500e-01 0.000000e+00
-1.996500e+00 1.282500e-01 0.000000e+00
-1.815000e+00 1.282500e-01 0.000000e+00
-1.633500e+00 1.282500e-01 0.000000e+00
-1.452000e+00 1.282500e-01 0.000000e+00
-2.178000e+00 2.565000e-01 0.000000e+00
-1.996500e+00 2.565000e-01 0.000000e+00
-1.815000e+00 2.565000e-01 0.000000e+00
-1.633500e+00 2.565000e-01 0.000000e+00
-1.452000e+00 2.565000e-01 0.000000e+00
-2.178000e+00 3.847500e-01 0.000000e+00
-1.996500e+00 3.847500e-01 0.000000e+00
-1.815000e+00 3.847500e-01 0.000000e+00
-1.633500e+00 3.847500e-01 0.000000e+00
-1.452000e+00 3.847500e-01 0.000000e+00
-2.178000e+00 5.130000e-01 0.000000e+00
-1.996500e+00 5.130000e-01 0.000000e+00
-1.815000e+00 5.130000e-01 0.000000e+00
-1.633500e+00 5.130000e-01 0.000000e+00
-1.452000e+00 5.130000e-01 0.000000e+00
-1.452000e+00 0.000000e+00 0.000000e+00
-1.270500e+00 0.000000e+00 0.000000e+00
-1.089000e+00 0.000000e+00 0.000000e+00
-9.075000e-01 0.000000e+00 0.000000e+00
-7.260000e-01 0.000000e+00 0.000000e+00
-1.452000e+00 1.282500e-01 0.000000e+00
-1.270500e+00 1.282500e-01 0.000000e+00
-1.089000e+00 1.282500e-01 0.000000e+00
-9.075000e-01 1.282500e-01 0.000000e+00
-7.260000e-01 1.282500e-01 0.000000e+00
-1.452000e+00 2.565000e-01 0.000000e+00
-1.270500e+00 2.565000e-01 0.000000e+00
-1.089000e+00 2.565000e-01 0.000000e+00
-9.075000e-01 2.565000e-01 0.000000e+00
-7.260000e-01 2.565000e-01 0.000000e+00
-1.452000e+00 3.847500e-01 0.000000e+00
-1.270500e+00 3.847500e-01 0.000000e+00
-1.089000e+00 3.847500e-01 0.000000e+00
-9.075000e-01 3.847500e-01 0.000000e+00
-7.260000e-01 3.847500e-01 0.000000e+00
-1.452000e+00 5.130000e-01 0.000000e+00
-1.270500e+00 5.130000e-01 0.000000e+00
-1.089000e+00 5.130000e-01 0.000000e+00
-9.075000e-01 5.130000e-01 0.000000e+00
-7.260000e-01 5.130000e-01 0.000000e+00
-7.260000e-01 0.000000e+00 0.000000e+00
-5.445000e-01 0.000000e+00 0.000000e+00
-3.630000e-01 0.000000e+00 0.000000e+00
-1.815000e-01 0.000000e+00 0.000000e+00
0.000000e+00 0.000000e+00 0.000000e+00
-7.260000e-01 1.282500e-01 0.000000e+00
-5.445000e-01 1.282500e-01 0.000000e+00
-3.630000e-01 1.282500e-01 0.000000e+00
-1.815000e-01 1.282500e-01 0.000000e+00
0.000000e+00 1.282500e-01 0.000000e+00
-7.260000e-01 2.565000e-01 0.000000e+00
-5.445000e-01 2.565000e-01 0.000000e+00
-3.630000e-01 2.565000e-01 0.000000e+00
-1.815000e-01 2.565000e-01 0.000000e+00
0.000000e+00 2.565000e-01 0.000000e+00
-7.260000e-01 3.847500e-01 0.000000e+00
-5.445000e-01 3.847500e-01 0.000000e+00
-3.630000e-01 3.847500e-01 0.000000e+00
-1.815000e-01 3.847500e-01 0.000000e+00
0.000000e+00 3.847500e-01 0.000000e+00
-7.260000e-01 5.130000e-01 0.000000e+00
-5.445000e-01 5.130000e-01 0.000000e+00
-3.630000e-01 5.130000e-01 0.000000e+00
-1.815000e-01 5.130000e-01 0.000000e+00
0.000000e+00 5.130000e-01 0.000000e+00
0.000000e+00 0.000000e+00 0.000000e+00
1.815000e-01 0.000000e+00 0.000000e+00
3.630000e-01 0.000000e+00 0.000000e+00
5.445000e-01 0.000000e+00 0.000000e+00
7.260000e-01 0.000000e+00 0.000000e+00
0.000000e+00 1.282500e-01 0.000000e+00
1.815000e-01 1.282500e-01 0.000000e+00
3.630000e-01 1.282500e-01 0.000000e+00
5.445000e-01 1.282500e-01 0.000000e+00
7.260000e-01 1.282500e-01 0.000000e+00
0.000000e+00 2.565000e-01 0.000000e+00
1.815000e-01 2.565000e-01 0.000000e+00
3.630000e-01 2.565000e-01 0.000000e+00
5.445000e-01 2.565000e-01 0.000000e+00
7.260000e-01 2.565000e-01 0.000000e+00
0.000000e+00 3.847500e-01 0.000000e+00
1.815000e-01 3.847500e-01 0.000000e+00
3.630000e-01 3.847500e-01 0.000000e+00
5.445000e-01 3.847500e-01 0.000000e+00
7.260000e-01 3.847500e-01 0.000000e+00
0.000000e+00 5.130000e-01 0.000000e+00
1.815000e-01 5.130000e-01 0.000000e+00
3.630000e-01 5.130000e-01 0.000000e+00
5.445000e-01 5.130000e-01 0.000000e+00
7.260000e-01 5.130000e-01 0.000000e+00
7.260000e-01 0.000000e+00 0.000000e+00
9.075000e-01 0.000000e+00 0.000000e+00
1.089000e+00 0.000000e+00 0.000000e+00
1.270500e+00 0.000000e+00 0.000000e+00
1.452000e+00 0.000000e+00 0.000000e+00
7.260000e-01 1.282500e-01 0.000000e+00
9.075000e-01 1.282500e-01 0.000000e+00
1.089000e+00 1.282500e-01 0.000000e+00
1.270500e+00 1.282500e-01 0.000000e+00
1.452000e+00 1.282500e-01 0.000000e+00
7.260000e-01 2.565000e-01 0.000000e+00
9.075000e-01 2.565000e-01 0.000000e+00
1.089000e+00 2.565000e-01 0.000000e+00
1.270500e+00 2.565000e-01 0.000000e+00
1.452000e+00 2.565000e-01 0.000000e+00
7.260000e-01 3.847500e-01 0.000000e+00
9.075000e-01 3.847500e-01 0.000000e+00
1.089000e+00 3.847500e-01 0.000000e+00
1.270500e+00 3.847500e-01 0.000000e+00
1.452000e+00 3.847500e-01 0.000000e+00
7.260000e-01 5.130000e-01 0.000000e+00
9.075000e-01 5.130000e-01 0.000000e+00
1.089000e+00 5.130000e-01 0.000000e+00
1.270500e+00 5.130000e-01 0.000000e+00
1.452000e+00 5.130000e-01 0.000000e+00
1.452000e+00 0.000000e+00 0.000000e+00
1.633500e+00 0.000000e+00 0.000000e+00
1.815000e+00 0.000000e+00 0.000000e+00
1.996500e+00 0.000000e+00 0.000000e+00
2.178000e+00 0.000000e+00 0.000000e+00
1.452000e+00 1.282500e-01 0.000000e+00
1.633500e+00 1.282500e-01 0.000000e+00
1.815000e+00 1.282500e-01 0.000000e+00
1.996500e+00 1.282500e-01 0.000000e+00
2.178000e+00 1.282500e-01 0.000000e+00
1.452000e+00 2.565000e-01 0.000000e+00
1.633500e+00 2.565000e-01 0.000000e+00
1.815000e+00 2.565000e-01 0.000000e+00
1.996500e+00 2.565000e-01 0.000000e+00
2.178000e+00 2.565000e-01 0.000000e+00
1.452000e+00 3.847500e-01 0.000000e+00
1.633500e+00 3.847500e-01 0.000000e+00
1.815000e+00 3.847500e-01 0.000000e+00
1.996500e+00 3.847500e-01 0.000000e+00
2.178000e+00 3.847500e-01 0.000000e+00
1.452000e+00 5.130000e-01 0.000000e+00
1.633500e+00 5.130000e-01 0.000000e+00
1.815000e+00 5.130000e-01 0.000000e+00
1.996500e+00 5.130000e-01 0.000000e+00
2.178000e+00 5.130000e-01 0.000000e+00
2.178000e+00 0.000000e+00 0.000000e+00
2.359500e+00 0.000000e+00 0.000000e+00
2.541000e+00 0.000000e+00 0.000000e+00
2.722500e+00 0.000000e+00 0.000000e+00
2.904000e+00 0.000000e+00 0.000000e+00
2.178000e+00 1.282500e-01 0.000000e+00
2.359500e+00 1.282500e-01 0.000000e+00
2.541000e+00 1.282500e-01 0.000000e+00
2.722500e+00 1.282500e-01 0.000000e+00
2.904000e+00 1.282500e-01 0.000000e+00
2.178000e+00 2.565000e-01 0.000000e+00
2.359500e+00 2.565000e-01 0.000000e+00
2.541000e+00 2.565000e-01 0.000000e+00
2.722500e+00 2.565000e-01 0.000000e+00
2.904000e+00 2.565000e-01 0.000000e+00
2.178000e+00 3.847500e-01 0.000000e+00
2.359500e+00 3.847500e-01 0.000000e+00
2.541000e+00 3.847500e-01 0.000000e+00
2.722500e+00 3.847500e-01 0.000000e+00
2.904000e+00 3.847500e-01 0.000000e+00
2.178000e+00 5.130000e-01 0.000000e+00
2.359500e+00 5.130000e-01 0.000000e+00
2.541000e+00 5.130000e-01 0.000000e+00
2.722500e+00 5.130000e-01 0.000000e+00
2.904000e+00 5.130000e-01 0.000000e+00
2.904000e+00 0.000000e+00 0.000000e+00
3.085500e+00 0.000000e+00 0.000000e+00
3.267000e+00 0.000000e+00 0.000000e+00
3.448500e+00 0.000000e+00 0.000000e+00
3.630000e+00 0.000000e+00 0.000000e+00
2.904000e+00 1.282500e-01 0.000000e+00
3.085500e+00 1.282500e-01 0.000000e+00
3.267000e+00 1.282500e-01 0.000000e+00
3.448500e+00 1.282500e-01 0.000000e+00
3.630000e+00 1.282500e-01 0.000000e+00
2.904000e+00 2.565000e-01 0.000000e+00
3.085500e+00 2.565000e-01 0.000000e+00
3.267000e+00 2.565000e-01 0.000000e+00
3.448500e+00 2.565000e-01 0.000000e+00
3.630000e+00 2.565000e-01 0.000000e+00
2.904000e+00 3.847500e-01 0.000000e+00
3.085500e+00 3.847500e-01 0.000000e+00
3.267000e+00 3.847500e-01 0.000000e+00
3.448500e+00 3.847500e-01 0.000000e+00
3.630000e+00 3.847500e-01 0.000000e+00
2.904000e+00 5.130000e-01 0.000000e+00
[...]
<PointData>
<DataArray type="Float32" Name="V1" format="ascii">
0.000000e+00
0.000000e+00
0.000000e+00
0.000000e+00
0.000000e+00
1.264110e-02
1.099310e-02
9.648220e-03
8.606520e-03
7.867990e-03
2.028400e-02
1.816760e-02
1.638240e-02
1.492830e-02
1.380530e-02
2.292870e-02
2.152360e-02
2.020240e-02
1.896520e-02
1.781190e-02
2.057510e-02
2.106100e-02
2.110840e-02
2.071740e-02
1.988780e-02
0.000000e+00
0.000000e+00
0.000000e+00
0.000000e+00
0.000000e+00
7.867990e-03
6.818250e-03
6.089550e-03
5.681920e-03
5.595350e-03
1.380530e-02
1.220370e-02
1.101990e-02
1.025380e-02
9.905510e-03
1.781190e-02
1.615650e-02
1.479110e-02
1.371580e-02
1.293050e-02
1.988780e-02
1.867650e-02
1.740310e-02
1.606770e-02
1.467030e-02
0.000000e+00
0.000000e+00
0.000000e+00
0.000000e+00
0.000000e+00
5.595350e-03
5.540170e-03
5.552340e-03
5.631870e-03
5.778750e-03
9.905510e-03
9.613620e-03
9.383880e-03
9.216280e-03
9.110820e-03
1.293050e-02
1.222040e-02
1.149460e-02
1.075320e-02
9.996200e-03
1.467030e-02
1.336040e-02
1.188450e-02
1.024270e-02
8.434900e-03
0.000000e+00
0.000000e+00
0.000000e+00
0.000000e+00
0.000000e+00
5.778750e-03
4.487380e-03
3.938710e-03
4.132740e-03
5.069480e-03
9.110820e-03
6.528340e-03
4.881500e-03
4.170310e-03
4.394770e-03
9.996200e-03
6.122870e-03
2.828380e-03
1.127070e-04
-2.024140e-03
8.434900e-03
3.270990e-03
-2.220670e-03
-8.040070e-03
-1.418720e-02
0.000000e+00
0.000000e+00
0.000000e+00
0.000000e+00
0.000000e+00
5.069480e-03
-3.568930e-03
-1.362680e-02
-2.510430e-02
-3.800120e-02
4.394770e-03
-1.077110e-02
-2.688260e-02
-4.393960e-02
-6.194210e-02
-2.024140e-03
-2.160660e-02
-3.976720e-02
-5.650590e-02
-7.182260e-02
-1.418720e-02
-3.607540e-02
-5.228080e-02
-6.280330e-02
-6.764290e-02
0.000000e+00
0.000000e+00
0.000000e+00
0.000000e+00
0.000000e+00
-3.800120e-02
-3.519740e-02
-3.176810e-02
-2.771340e-02
-2.303330e-02
-6.194210e-02
-5.679220e-02
-5.057720e-02
-4.329720e-02
-3.495210e-02
-7.182260e-02
-6.478440e-02
-5.642720e-02
-4.675130e-02
-3.575640e-02
-6.764290e-02
-5.917400e-02
-4.931820e-02
-3.807560e-02
-2.544630e-02
0.000000e+00
0.000000e+00
0.000000e+00
0.000000e+00
0.000000e+00
-2.303330e-02
-1.904590e-02
-1.494490e-02
-1.073030e-02
-6.402090e-03
-3.495210e-02
-2.900010e-02
-2.281260e-02
-1.638970e-02
-9.731440e-03
-3.575640e-02
-2.986240e-02
-2.360300e-02
-1.697820e-02
-9.988060e-03
-2.544630e-02
-2.163290e-02
-1.731610e-02
-1.249570e-02
-7.171930e-03
0.000000e+00
0.000000e+00
0.000000e+00
0.000000e+00
0.000000e+00
-6.402090e-03
-1.658200e-03
1.828800e-03
4.058890e-03
5.032080e-03
-9.731440e-03
-2.207660e-03
3.381660e-03
7.036490e-03
8.756860e-03
-9.988060e-03
-1.648370e-03
4.658580e-03
8.932820e-03
1.117430e-02
-7.171930e-03
1.964690e-05
5.659580e-03
9.747860e-03
1.228450e-02
0.000000e+00
0.000000e+00
0.000000e+00
0.000000e+00
0.000000e+00
5.032080e-03
6.156370e-03
7.126540e-03
7.942600e-03
8.604530e-03
8.756860e-03
1.058960e-02
1.216940e-02
1.349620e-02
1.456990e-02
1.117430e-02
1.329980e-02
1.512860e-02
1.666070e-02
1.789610e-02
1.228450e-02
1.428690e-02
1.600410e-02
1.743620e-02
1.858310e-02
0.000000e+00
0.000000e+00
0.000000e+00
0.000000e+00
0.000000e+00
8.604530e-03
9.255100e-03
9.915460e-03
1.058560e-02
1.126550e-02
1.456990e-02
1.579440e-02
1.695800e-02
1.806070e-02
1.910250e-02
1.789610e-02
1.961780e-02
2.112760e-02
2.242530e-02
2.351110e-02
1.858310e-02
2.072550e-02
2.242430e-02
2.367950e-02
2.449100e-02
2.057510e-02
2.106100e-02
2.110840e-02
2.071740e-02
1.988780e-02
2.078850e-02
2.095930e-02
2.092540e-02
2.068660e-02
2.024310e-02
2.103660e-02
2.095080e-02
2.081810e-02
2.063840e-02
2.041190e-02
2.131930e-02
2.103540e-02
2.078660e-02
2.057280e-02
2.039410e-02
2.163650e-02
2.121310e-02
2.083090e-02
2.048970e-02
2.018970e-02
1.988780e-02
1.867650e-02
1.740310e-02
1.606770e-02
1.467030e-02
2.024310e-02
1.943400e-02
1.839650e-02
1.713070e-02
1.563650e-02
2.041190e-02
1.989120e-02
1.905450e-02
1.790170e-02
1.643290e-02
2.039410e-02
2.004830e-02
1.937720e-02
1.838100e-02
1.705940e-02
2.018970e-02
1.990510e-02
1.936460e-02
1.856830e-02
1.751610e-02
1.467030e-02
1.336040e-02
1.188450e-02
1.024270e-02
8.434900e-03
1.563650e-02
1.333190e-02
1.142750e-02
9.923230e-03
8.819140e-03
1.643290e-02
1.312740e-02
1.097680e-02
9.981040e-03
1.014020e-02
1.705940e-02
1.274680e-02
1.053230e-02
1.041610e-02
1.239820e-02
1.751610e-02
1.219010e-02
1.009420e-02
1.122850e-02
1.559290e-02
8.434900e-03
3.270990e-03
-2.220670e-03
-8.040070e-03
-1.418720e-02
8.819140e-03
1.319690e-03
-6.158410e-03
-1.361520e-02
-2.105050e-02
1.014020e-02
5.548460e-04
-8.274650e-03
-1.634820e-02
-2.366600e-02
1.239820e-02
9.764590e-04
-8.569380e-03
-1.623940e-02
-2.203350e-02
1.559290e-02
2.584530e-03
-7.042620e-03
-1.328850e-02
-1.615310e-02
-1.418720e-02
-3.607540e-02
-5.228080e-02
-6.280330e-02
-6.764290e-02
-2.105050e-02
-3.839200e-02
-5.191280e-02
-6.161300e-02
-6.749260e-02
-2.366600e-02
-3.559040e-02
-4.528410e-02
-5.274720e-02
-5.797970e-02
-2.203350e-02
-2.767050e-02
-3.239460e-02
-3.620590e-02
-3.910430e-02
-1.615310e-02
-1.463230e-02
-1.324430e-02
-1.198900e-02
-1.086630e-02
-6.764290e-02
-5.917400e-02
-4.931820e-02
-3.807560e-02
-2.544630e-02
-6.749260e-02
-5.883740e-02
-4.831910e-02
-3.593760e-02
-2.169300e-02
-5.797970e-02
-5.019250e-02
-4.050690e-02
-2.892310e-02
-1.544090e-02
-3.910430e-02
-3.323930e-02
-2.588190e-02
-1.703210e-02
-6.689880e-03
-1.086630e-02
-7.977720e-03
-4.443810e-03
-2.645780e-04
4.559960e-03
-2.544630e-02
-2.163290e-02
-1.731610e-02
-1.249570e-02
-7.171930e-03
-2.169300e-02
-1.752150e-02
-1.349440e-02
-9.611820e-03
-5.873630e-03
-1.544090e-02
-1.134370e-02
-7.941670e-03
-5.234660e-03
-3.222710e-03
-6.689880e-03
-3.099620e-03
-6.577530e-04
6.357300e-04
7.808250e-04
4.559960e-03
7.210850e-03
8.357320e-03
7.999360e-03
6.136980e-03
-7.171930e-03
1.964690e-05
5.659580e-03
9.747860e-03
1.228450e-02
-5.873630e-03
1.804680e-03
7.623150e-03
1.158180e-02
1.368060e-02
-3.222710e-03
4.247570e-03
9.780330e-03
1.337560e-02
1.503330e-02
7.808250e-04
7.348330e-03
1.213110e-02
1.512920e-02
1.634250e-02
6.136980e-03
1.110700e-02
1.467550e-02
1.684260e-02
1.760830e-02
1.228450e-02
1.428690e-02
1.600410e-02
1.743620e-02
1.858310e-02
1.368060e-02
1.533080e-02
1.675170e-02
1.794320e-02
1.890540e-02
1.503330e-02
1.636070e-02
1.750360e-02
1.846200e-02
1.923590e-02
1.634250e-02
1.737650e-02
1.825980e-02
1.899260e-02
1.957470e-02
1.760830e-02
1.837820e-02
1.902040e-02
1.953490e-02
1.992180e-02
1.858310e-02
2.072550e-02
2.242430e-02
2.367950e-02
2.449100e-02
1.890540e-02
2.117970e-02
2.293420e-02
2.416870e-02
2.488330e-02
1.923590e-02
2.156500e-02
2.331020e-02
2.447160e-02
2.504910e-02
1.957470e-02
2.188130e-02
2.355240e-02
2.458810e-02
2.498840e-02
1.992180e-02
2.212860e-02
2.366070e-02
2.451830e-02
2.470130e-02
2.163650e-02
2.121310e-02
2.083090e-02
2.048970e-02
2.018970e-02
2.197900e-02
2.154870e-02
2.117370e-02
2.085410e-02
2.058990e-02
2.233590e-02
2.192650e-02
2.158010e-02
2.129680e-02
2.107650e-02
2.270730e-02
2.234660e-02
2.205000e-02
2.181770e-02
2.164950e-02
2.309330e-02
2.280900e-02
2.258350e-02
2.241680e-02
2.230900e-02
2.018970e-02
1.990510e-02
1.936460e-02
1.856830e-02
1.751610e-02
2.058990e-02
2.006570e-02
1.955040e-02
1.904400e-02
1.854650e-02
2.107650e-02
2.035380e-02
1.985800e-02
1.958910e-02
1.954710e-02
2.164950e-02
2.076920e-02
2.028720e-02
2.020350e-02
2.051800e-02
2.230900e-02
2.131210e-02
2.083820e-02
2.088720e-02
2.145920e-02
1.751610e-02
1.219010e-02
1.009420e-02
1.122850e-02
1.559290e-02
1.854650e-02
1.286120e-02
1.094230e-02
1.278980e-02
1.840380e-02
1.954710e-02
1.406070e-02
1.239830e-02
1.456000e-02
2.054590e-02
2.051800e-02
1.578860e-02
1.446230e-02
1.653910e-02
2.201910e-02
2.145920e-02
1.804490e-02
1.713420e-02
1.872710e-02
2.282360e-02
1.559290e-02
2.584530e-03
-7.042620e-03
-1.328850e-02
-1.615310e-02
1.840380e-02
6.898360e-03
-1.386070e-03
-6.449470e-03
-8.291850e-03
2.054590e-02
1.167840e-02
5.300020e-03
1.410730e-03
1.053190e-05
2.201910e-02
1.692470e-02
1.301560e-02
1.029210e-02
8.754040e-03
2.282360e-02
2.263710e-02
2.176080e-02
2.019470e-02
1.793870e-02
-1.615310e-02
-1.463230e-02
-1.324430e-02
-1.198900e-02
-1.086630e-02
-8.291850e-03
8.244990e-04
8.770080e-03
1.554490e-02
2.114890e-02
1.053190e-05
1.395750e-02
2.605990e-02
3.631750e-02
4.473040e-02
8.754040e-03
2.476680e-02
3.862500e-02
5.032880e-02
5.987800e-02
1.793870e-02
3.325220e-02
4.646560e-02
5.757880e-02
6.659180e-02
-1.086630e-02
-7.977720e-03
-4.443810e-03
-2.645780e-04
4.559960e-03
2.114890e-02
1.638050e-02
1.346470e-02
1.240160e-02
1.319110e-02
4.473040e-02
3.550660e-02
2.860630e-02
2.402940e-02
2.177590e-02
5.987800e-02
4.940070e-02
4.098100e-02
3.461890e-02
3.031430e-02
6.659180e-02
5.806280e-02
5.058890e-02
4.417010e-02
3.880620e-02
4.559960e-03
7.210850e-03
8.357320e-03
7.999360e-03
6.136980e-03
1.319110e-02
1.486120e-02
1.513040e-02
1.399860e-02
1.146590e-02
2.177590e-02
2.214360e-02
2.134240e-02
1.937240e-02
1.623360e-02
3.031430e-02
2.905790e-02
2.699340e-02
2.412080e-02
2.044010e-02
3.880620e-02
3.560420e-02
3.208340e-02
2.824380e-02
2.408550e-02
6.136980e-03
1.110700e-02
1.467550e-02
1.684260e-02
1.760830e-02
1.146590e-02
1.450830e-02
1.671830e-02
1.809580e-02
1.864080e-02
1.623360e-02
1.765210e-02
1.870290e-02
1.938620e-02
1.970190e-02
2.044010e-02
2.053810e-02
2.062940e-02
2.071390e-02
2.079170e-02
2.408550e-02
2.316650e-02
2.249760e-02
2.207890e-02
2.191030e-02
1.760830e-02
1.837820e-02
1.902040e-02
1.953490e-02
1.992180e-02
1.864080e-02
1.943620e-02
2.003630e-02
2.044090e-02
2.065020e-02
1.970190e-02
2.047390e-02
2.100810e-02
2.130440e-02
2.136290e-02
2.079170e-02
2.149140e-02
2.193590e-02
2.212540e-02
2.205990e-02
2.191030e-02
2.248840e-02
2.281960e-02
2.290390e-02
2.274110e-02
1.992180e-02
2.212860e-02
2.366070e-02
2.451830e-02
2.470130e-02
2.065020e-02
2.246880e-02
2.375050e-02
2.449520e-02
2.470300e-02
2.136290e-02
2.281080e-02
2.385220e-02
2.448710e-02
2.471550e-02
2.205990e-02
2.315450e-02
2.396580e-02
2.449400e-02
2.473890e-02
2.274110e-02
2.349980e-02
2.409130e-02
2.451580e-02
2.477310e-02
2.309330e-02
2.280900e-02
2.258350e-02
2.241680e-02
2.230900e-02
2.348320e-02
2.323180e-02
2.305320e-02
2.294740e-02
2.291440e-02
2.386930e-02
2.364730e-02
2.351050e-02
2.345890e-02
2.349260e-02
2.425160e-02
2.405540e-02
2.395540e-02
2.395140e-02
2.404350e-02
2.463000e-02
2.445620e-02
2.438780e-02
2.442480e-02
2.456730e-02
2.230900e-02
2.131210e-02
2.083820e-02
2.088720e-02
2.145920e-02
2.291440e-02
2.201270e-02
2.160340e-02
2.168650e-02
2.226180e-02
2.349260e-02
2.271710e-02
2.239130e-02
2.251520e-02
2.308860e-02
2.404350e-02
2.342530e-02
2.320190e-02
2.337320e-02
2.393940e-02
2.456730e-02
2.413720e-02
2.403500e-02
2.426080e-02
2.481440e-02
2.145920e-02
1.804490e-02
1.713420e-02
1.872710e-02
2.282360e-02
2.226180e-02
2.017890e-02
1.978840e-02
2.109050e-02
2.408500e-02
2.308860e-02
2.204340e-02
2.208500e-02
2.321330e-02
2.542840e-02
2.393940e-02
2.363840e-02
2.402380e-02
2.509550e-02
2.685370e-02
2.481440e-02
2.496400e-02
2.560500e-02
2.673730e-02
2.836090e-02
2.282360e-02
2.263710e-02
2.176080e-02
2.019470e-02
1.793870e-02
2.408500e-02
2.624200e-02
2.765430e-02
2.832180e-02
2.824460e-02
2.542840e-02
2.896520e-02
3.184250e-02
3.406020e-02
3.561840e-02
2.685370e-02
3.080660e-02
3.432540e-02
3.740990e-02
4.006010e-02
2.836090e-02
3.176630e-02
3.510300e-02
3.837080e-02
4.156970e-02
1.793870e-02
3.325220e-02
4.646560e-02
5.757880e-02
6.659180e-02
2.824460e-02
4.100140e-02
5.213790e-02
6.165430e-02
6.955050e-02
3.561840e-02
4.608070e-02
5.523950e-02
6.309450e-02
6.964600e-02
4.006010e-02
4.849040e-02
5.577010e-02
6.189940e-02
6.687820e-02
4.156970e-02
4.823020e-02
5.373000e-02
5.806890e-02
6.124720e-02
6.659180e-02
5.806280e-02
5.058890e-02
4.417010e-02
3.880620e-02
6.955050e-02
6.191340e-02
5.479240e-02
4.818770e-02
4.209920e-02
6.964600e-02
6.309850e-02
5.672320e-02
5.052010e-02
4.448920e-02
6.687820e-02
6.161820e-02
5.638120e-02
5.116730e-02
4.597640e-02
6.124720e-02
5.747240e-02
5.376650e-02
5.012920e-02
4.656070e-02
3.880620e-02
3.560420e-02
3.208340e-02
2.824380e-02
2.408550e-02
4.209920e-02
3.799840e-02
3.398920e-02
3.007150e-02
2.624540e-02
4.448920e-02
3.988140e-02
3.562070e-02
3.170720e-02
2.814090e-02
4.597640e-02
4.125300e-02
3.697780e-02
3.315080e-02
2.977210e-02
4.656070e-02
4.211320e-02
3.806040e-02
3.440240e-02
3.113900e-02
2.408550e-02
2.316650e-02
2.249760e-02
2.207890e-02
2.191030e-02
2.624540e-02
2.517760e-02
2.431640e-02
2.366180e-02
2.321380e-02
2.814090e-02
2.693390e-02
2.590800e-02
2.506320e-02
2.439960e-02
2.977210e-02
2.843530e-02
2.727220e-02
2.628300e-02
2.546750e-02
3.113900e-02
2.968180e-02
2.840920e-02
2.732110e-02
2.641760e-02
2.191030e-02
2.248840e-02
2.281960e-02
2.290390e-02
2.274110e-02
2.321380e-02
2.346600e-02
2.355700e-02
2.348680e-02
2.325550e-02
2.439960e-02
2.436270e-02
2.424130e-02
2.403530e-02
2.374490e-02
2.546750e-02
2.517850e-02
2.487250e-02
2.454950e-02
2.420940e-02
2.641760e-02
2.591350e-02
2.545070e-02
2.502920e-02
2.464900e-02
2.274110e-02
2.349980e-02
2.409130e-02
2.451580e-02
2.477310e-02
2.325550e-02
2.389720e-02
2.437060e-02
2.467560e-02
2.481220e-02
2.374490e-02
2.427870e-02
2.464230e-02
2.483550e-02
2.485830e-02
2.420940e-02
2.464430e-02
2.490630e-02
2.499540e-02
2.491150e-02
2.464900e-02
2.499400e-02
2.516280e-02
2.515530e-02
2.497160e-02
2.463000e-02
2.445620e-02
2.438780e-02
2.442480e-02
2.456730e-02
2.499690e-02
2.486320e-02
2.482990e-02
2.489680e-02
2.506400e-02
2.534870e-02
2.525710e-02
2.525830e-02
2.535220e-02
2.553890e-02
2.568540e-02
2.563780e-02
2.567300e-02
2.579110e-02
2.599200e-02
2.600690e-02
2.600520e-02
2.607410e-02
2.621340e-02
2.642330e-02
2.456730e-02
2.413720e-02
2.403500e-02
2.426080e-02
2.481440e-02
2.506400e-02
2.478760e-02
2.478950e-02
2.506980e-02
2.562850e-02
2.553890e-02
2.539240e-02
2.548060e-02
2.580360e-02
2.636140e-02
2.599200e-02
2.595160e-02
2.610820e-02
2.646210e-02
2.701310e-02
2.642330e-02
2.646520e-02
2.667250e-02
2.704530e-02
2.758350e-02
2.481440e-02
2.496400e-02
2.560500e-02
2.673730e-02
2.836090e-02
2.562850e-02
2.602640e-02
2.678910e-02
2.791660e-02
2.940880e-02
2.636140e-02
2.695300e-02
2.780370e-02
2.891370e-02
3.028280e-02
2.701310e-02
2.774360e-02
2.864880e-02
2.972860e-02
3.098300e-02
2.758350e-02
2.839830e-02
2.932420e-02
3.036130e-02
3.150940e-02
2.836090e-02
3.176630e-02
3.510300e-02
3.837080e-02
4.156970e-02
2.940880e-02
3.258610e-02
3.564440e-02
3.858380e-02
4.140430e-02
3.028280e-02
3.318740e-02
3.594900e-02
3.856770e-02
4.104360e-02
3.098300e-02
3.357030e-02
3.601680e-02
3.832260e-02
4.048760e-02
3.150940e-02
3.373480e-02
3.584770e-02
3.784830e-02
3.973640e-02
4.156970e-02
4.823020e-02
5.373000e-02
5.806890e-02
6.124720e-02
4.140430e-02
4.675390e-02
5.112730e-02
5.452450e-02
5.694560e-02
4.104360e-02
4.526020e-02
4.867500e-02
5.128800e-02
5.309930e-02
4.048760e-02
4.374910e-02
4.637300e-02
4.835940e-02
4.970830e-02
3.973640e-02
4.222060e-02
4.422140e-02
4.573880e-02
4.677270e-02
6.124720e-02
5.747240e-02
5.376650e-02
5.012920e-02
4.656070e-02
5.694560e-02
5.404910e-02
5.112980e-02
4.818770e-02
4.522270e-02
5.309930e-02
5.096030e-02
4.873170e-02
4.641360e-02
4.400590e-02
4.970830e-02
4.820600e-02
4.657230e-02
4.480710e-02
4.291040e-02
4.677270e-02
4.578630e-02
4.465140e-02
4.336800e-02
4.193610e-02
4.656070e-02
4.211320e-02
3.806040e-02
3.440240e-02
3.113900e-02
4.522270e-02
4.132570e-02
3.780380e-02
3.465730e-02
3.188600e-02
4.400590e-02
4.064970e-02
3.762060e-02
3.491860e-02
3.254360e-02
4.291040e-02
4.008550e-02
3.751070e-02
3.518620e-02
3.311180e-02
4.193610e-02
3.963290e-02
3.747420e-02
3.546010e-02
3.359070e-02
3.113900e-02
2.968180e-02
2.840920e-02
2.732110e-02
2.641760e-02
3.188600e-02
3.048090e-02
2.922490e-02
2.811790e-02
2.715990e-02
3.254360e-02
3.115020e-02
2.989100e-02
2.876610e-02
2.777540e-02
3.311180e-02
3.168950e-02
3.040740e-02
2.926570e-02
2.826410e-02
3.359070e-02
3.209900e-02
3.077430e-02
2.961660e-02
2.862600e-02
2.641760e-02
2.591350e-02
2.545070e-02
2.502920e-02
2.464900e-02
2.715990e-02
2.657770e-02
2.605260e-02
2.558440e-02
2.517330e-02
2.777540e-02
2.714170e-02
2.657530e-02
2.607630e-02
2.564460e-02
2.826410e-02
2.760560e-02
2.701910e-02
2.650480e-02
2.606270e-02
2.862600e-02
2.796920e-02
2.738390e-02
2.687010e-02
2.642780e-02
2.464900e-02
2.499400e-02
2.516280e-02
2.515530e-02
2.497160e-02
2.517330e-02
2.532740e-02
2.536470e-02
2.528530e-02
2.508910e-02
2.564460e-02
2.562810e-02
2.555020e-02
2.541100e-02
2.521050e-02
2.606270e-02
2.589620e-02
2.571950e-02
2.553260e-02
2.533560e-02
2.642780e-02
2.613160e-02
2.587240e-02
2.565000e-02
2.546460e-02
2.600690e-02
2.600520e-02
2.607410e-02
2.621340e-02
2.642330e-02
2.630990e-02
2.634510e-02
2.644240e-02
2.660170e-02
2.682300e-02
2.659390e-02
2.666270e-02
2.678550e-02
2.696220e-02
2.719270e-02
2.685910e-02
2.695810e-02
2.710330e-02
2.729480e-02
2.753260e-02
2.710540e-02
2.723110e-02
2.739580e-02
2.759960e-02
2.784250e-02
2.642330e-02
2.646520e-02
2.667250e-02
2.704530e-02
2.758350e-02
2.682300e-02
2.692140e-02
2.716400e-02
2.755060e-02
2.808140e-02
2.719270e-02
2.733950e-02
2.760980e-02
2.800360e-02
2.852110e-02
2.753260e-02
2.771930e-02
2.800980e-02
2.840430e-02
2.890260e-02
2.784250e-02
2.806080e-02
2.836420e-02
2.875250e-02
2.922590e-02
2.758350e-02
2.839830e-02
2.932420e-02
3.036130e-02
3.150940e-02
2.808140e-02
2.890260e-02
2.981290e-02
3.081220e-02
3.190050e-02
2.852110e-02
2.932860e-02
3.020640e-02
3.115460e-02
3.217310e-02
2.890260e-02
2.967620e-02
3.050490e-02
3.138860e-02
3.232730e-02
2.922590e-02
2.994540e-02
3.070820e-02
3.151410e-02
3.236310e-02
3.150940e-02
3.373480e-02
3.584770e-02
3.784830e-02
3.973640e-02
3.190050e-02
3.384250e-02
3.567310e-02
3.739230e-02
3.900010e-02
3.217310e-02
3.386500e-02
3.544780e-02
3.692150e-02
3.828610e-02
3.232730e-02
3.380240e-02
3.517190e-02
3.643580e-02
3.759410e-02
3.236310e-02
3.365450e-02
3.484520e-02
3.593510e-02
3.692430e-02
3.973640e-02
4.222060e-02
4.422140e-02
4.573880e-02
4.677270e-02
3.900010e-02
4.106290e-02
4.270580e-02
4.392870e-02
4.473160e-02
3.828610e-02
3.998220e-02
4.132030e-02
4.230030e-02
4.292230e-02
3.759410e-02
3.897840e-02
4.006490e-02
4.085370e-02
4.134470e-02
3.692430e-02
3.805150e-02
3.893970e-02
3.958890e-02
3.999900e-02
4.677270e-02
4.578630e-02
4.465140e-02
4.336800e-02
4.193610e-02
4.473160e-02
4.392020e-02
4.297400e-02
4.189280e-02
4.067680e-02
4.292230e-02
4.227500e-02
4.150310e-02
4.060670e-02
3.958560e-02
4.134470e-02
4.085060e-02
4.023880e-02
3.950950e-02
3.866260e-02
3.999900e-02
3.964690e-02
3.918100e-02
3.860130e-02
3.790770e-02
4.193610e-02
3.963290e-02
3.747420e-02
3.546010e-02
3.359070e-02
4.067680e-02
3.870410e-02
3.685870e-02
3.514070e-02
3.354990e-02
3.958560e-02
3.790930e-02
3.633670e-02
3.486780e-02
3.350260e-02
3.866260e-02
3.724840e-02
3.590810e-02
3.464150e-02
3.344870e-02
3.790770e-02
3.672150e-02
3.557290e-02
3.446180e-02
3.338830e-02
3.359070e-02
3.209900e-02
3.077430e-02
2.961660e-02
2.862600e-02
3.354990e-02
3.220490e-02
3.099160e-02
2.991020e-02
2.896050e-02
3.350260e-02
3.227670e-02
3.115750e-02
3.014490e-02
2.923880e-02
3.344870e-02
3.231450e-02
3.127190e-02
3.032070e-02
2.946100e-02
3.338830e-02
3.231830e-02
3.133470e-02
3.043770e-02
2.962710e-02
2.862600e-02
2.796920e-02
2.738390e-02
2.687010e-02
2.642780e-02
2.896050e-02
2.829900e-02
2.770530e-02
2.717960e-02
2.672180e-02
2.923880e-02
2.857670e-02
2.797850e-02
2.744430e-02
2.697410e-02
2.946100e-02
2.880230e-02
2.820340e-02
2.766420e-02
2.718480e-02
2.962710e-02
2.897590e-02
2.837990e-02
2.783920e-02
2.735370e-02
2.642780e-02
2.613160e-02
2.587240e-02
2.565000e-02
2.546460e-02
2.672180e-02
2.637860e-02
2.607660e-02
2.581580e-02
2.559620e-02
2.697410e-02
2.659570e-02
2.626040e-02
2.596840e-02
2.571960e-02
2.718480e-02
2.678270e-02
2.642370e-02
2.610780e-02
2.583490e-02
2.735370e-02
2.693980e-02
2.656660e-02
2.623400e-02
2.594220e-02
2.710540e-02
2.723110e-02
2.739580e-02
2.759960e-02
2.784250e-02
2.733260e-02
2.747650e-02
2.765460e-02
2.786690e-02
2.811350e-02
2.754220e-02
2.770170e-02
2.789070e-02
2.810920e-02
2.835700e-02
2.773410e-02
2.790690e-02
2.810430e-02
2.832630e-02
2.857300e-02