<?xml version="1.0"?>
<VTKFile type="UnstructuredGrid" version="0.1" byte_order="LittleEndian" compressor="vtkZLibDataCompressor">
<UnstructuredGrid>
<Piece NumberOfPoints="2500" NumberOfCells="1600">
<Points>
<DataArray type="Float32" NumberOfComponents="3" format="ascii">
-3.630000e+00 0.000000e+00 0.000000e+00
-3.448500e+00 0.000000e+00 0.000000e+00
-3.267000e+00 0.000000e+00 0.000000e+00
-3.085500e+00 0.000000e+00 0.000000e+00
-2.904000e+00 0.000000e+00 0.000000e+00
-3.630000e+00 1.282500e-01 0.000000e+00
-3.448500e+00 1.282500e-01 0.000000e+00
-3.267000e+00 1.282500e-01 0.000000e+00
-3.085500e+00 1.282500e-01 0.000000e+00
-2.904000e+00 1.282500e-01 0.000000e+00
-3.630000e+00 2.565000e-01 0.000000e+00
-3.448500e+00 2.565000e-01 0.000000e+00
-3.267000e+00 2.565000e-01 0.000000e+00
-3.085500e+00 2.565000e-01 0.000000e+00
-2.904000e+00 2.565000e-01 0.000000e+00
-3.630000e+00 3.847500e-01 0.000000e+00
-3.448500e+00 3.847500e-01 0.000000e+00
-3.267000e+00 3.847500e-01 0.000000e+00
-3.085500e+00 3.847500e-01 0.000000e+00
-2.904000e+00 3.847500e-01 0.000000e+00
-3.630000e+00 5.130000e-01 0.000000e+00
-3.448500e+00 5.130000e-01 0.000000e+00
-3.267000e+00 5.130000e-01 0.000000e+00
-3.085500e+00 5.130000e-01 0.000000e+00
-2.904000e+00 5.130000e-01 0.000000e+00
-2.904000e+00 0.000000e+00 0.000000e+00
-2.722500e+00 0.000000e+00 0.000000e+00
-2.541000e+00 0.000000e+00 0.000000e+00
-2.359500e+00 0.000000e+00 0.000000e+00
-2.178000e+00 0.000000e+00 0.000000e+00
-2.904000e+00 1.282500e-01 0.000000e+00
-2.722500e+00 1.282500e-01 0.000000e+00
-2.541000e+00 1.282500e-01 0.000000e+00
-2.359500e+00 1.282500e-01 0.000000e+00
-2.178000e+00 1.282500e-01 0.000000e+00
-2.904000e+00 2.565000e-01 0.000000e+00
-2.722500e+00 2.565000e-01 0.000000e+00
-2.541000e+00 2.565000e-01 0.000000e+00
-2.359500e+00 2.565000e-01 0.000000e+00
-2.178000e+00 2.565000e-01 0.000000e+00
-2.904000e+00 3.847500e-01 0.000000e+00
-2.722500e+00 3.847500e-01 0.000000e+00
-2.541000e+00 3.847500e-01 0.000000e+00
-2.359500e+00 3.847500e-01 0.000000e+00
-2.178000e+00 3.847500e-01 0.000000e+00
-2.904000e+00 5.130000e-01 0.000000e+00
-2.722500e+00 5.130000e-01 0.000000e+00
-2.541000e+00 5.130000e-01 0.000000e+00
-2.359500e+00 5.130000e-01 0.000000e+00
-2.178000e+00 5.130000e-01 0.000000e+00
-2.178000e+00 0.000000e+00 0.000000e+00
-1.996500e+00 0.000000e+00 0.000000e+00
-1.815000e+00 0.000000e+00 0.000000e+00
-1.633500e+00 0.000000e+00 0.000000e+00
-1.452000e+00 0.000000e+00 0.000000e+00
-2.178000e+00 1.282500e-01 0.000000e+00
-1.996500e+00 1.282500e-01 0.000000e+00
-1.815000e+00 1.282500e-01 0.000000e+00
-1.633500e+00 1.282500e-01 0.000000e+00
-1.452000e+00 1.282500e-01 0.000000e+00
-2.178000e+00 2.565000e-01 0.000000e+00
-1.996500e+00 2.565000e-01 0.000000e+00
-1.815000e+00 2.565000e-01 0.000000e+00
-1.633500e+00 2.565000e-01 0.000000e+00
-1.452000e+00 2.565000e-01 0.000000e+00
-2.178000e+00 3.847500e-01 0.000000e+00
-1.996500e+00 3.847500e-01 0.000000e+00
-1.815000e+00 3.847500e-01 0.000000e+00
-1.633500e+00 3.847500e-01 0.000000e+00
-1.452000e+00 3.847500e-01 0.000000e+00
-2.178000e+00 5.130000e-01 0.000000e+00
-1.996500e+00 5.130000e-01 0.000000e+00
-1.815000e+00 5.130000e-01 0.000000e+00
-1.633500e+00 5.130000e-01 0.000000e+00
-1.452000e+00 5.130000e-01 0.000000e+00
-1.452000e+00 0.000000e+00 0.000000e+00
-1.270500e+00 0.000000e+00 0.000000e+00
-1.089000e+00 0.000000e+00 0.000000e+00
-9.075000e-01 0.000000e+00 0.000000e+00
-7.260000e-01 0.000000e+00 0.000000e+00
-1.452000e+00 1.282500e-01 0.000000e+00
-1.270500e+00 1.282500e-01 0.000000e+00
-1.089000e+00 1.282500e-01 0.000000e+00
-9.075000e-01 1.282500e-01 0.000000e+00
-7.260000e-01 1.282500e-01 0.000000e+00
-1.452000e+00 2.565000e-01 0.000000e+00
-1.270500e+00 2.565000e-01 0.000000e+00
-1.089000e+00 2.565000e-01 0.000000e+00
-9.075000e-01 2.565000e-01 0.000000e+00
-7.260000e-01 2.565000e-01 0.000000e+00
-1.452000e+00 3.847500e-01 0.000000e+00
-1.270500e+00 3.847500e-01 0.000000e+00
-1.089000e+00 3.847500e-01 0.000000e+00
-9.075000e-01 3.847500e-01 0.000000e+00
-7.260000e-01 3.847500e-01 0.000000e+00
-1.452000e+00 5.130000e-01 0.000000e+00
-1.270500e+00 5.130000e-01 0.000000e+00
-1.089000e+00 5.130000e-01 0.000000e+00
-9.075000e-01 5.130000e-01 0.000000e+00
-7.260000e-01 5.130000e-01 0.000000e+00
-7.260000e-01 0.000000e+00 0.000000e+00
-5.445000e-01 0.000000e+00 0.000000e+00
-3.630000e-01 0.000000e+00 0.000000e+00
-1.815000e-01 0.000000e+00 0.000000e+00
0.000000e+00 0.000000e+00 0.000000e+00
-7.260000e-01 1.282500e-01 0.000000e+00
-5.445000e-01 1.282500e-01 0.000000e+00
-3.630000e-01 1.282500e-01 0.000000e+00
-1.815000e-01 1.282500e-01 0.000000e+00
0.000000e+00 1.282500e-01 0.000000e+00
-7.260000e-01 2.565000e-01 0.000000e+00
-5.445000e-01 2.565000e-01 0.000000e+00
-3.630000e-01 2.565000e-01 0.000000e+00
-1.815000e-01 2.565000e-01 0.000000e+00
0.000000e+00 2.565000e-01 0.000000e+00
-7.260000e-01 3.847500e-01 0.000000e+00
-5.445000e-01 3.847500e-01 0.000000e+00
-3.630000e-01 3.847500e-01 0.000000e+00
-1.815000e-01 3.847500e-01 0.000000e+00
0.000000e+00 3.847500e-01 0.000000e+00
-7.260000e-01 5.130000e-01 0.000000e+00
-5.445000e-01 5.130000e-01 0.000000e+00
-3.630000e-01 5.130000e-01 0.000000e+00
-1.815000e-01 5.130000e-01 0.000000e+00
0.000000e+00 5.130000e-01 0.000000e+00
0.000000e+00 0.000000e+00 0.000000e+00
1.815000e-01 0.000000e+00 0.000000e+00
3.630000e-01 0.000000e+00 0.000000e+00
5.445000e-01 0.000000e+00 0.000000e+00
7.260000e-01 0.000000e+00 0.000000e+00
0.000000e+00 1.282500e-01 0.000000e+00
1.815000e-01 1.282500e-01 0.000000e+00
3.630000e-01 1.282500e-01 0.000000e+00
5.445000e-01 1.282500e-01 0.000000e+00
7.260000e-01 1.282500e-01 0.000000e+00
0.000000e+00 2.565000e-01 0.000000e+00
1.815000e-01 2.565000e-01 0.000000e+00
3.630000e-01 2.565000e-01 0.000000e+00
5.445000e-01 2.565000e-01 0.000000e+00
7.260000e-01 2.565000e-01 0.000000e+00
0.000000e+00 3.847500e-01 0.000000e+00
1.815000e-01 3.847500e-01 0.000000e+00
3.630000e-01 3.847500e-01 0.000000e+00
5.445000e-01 3.847500e-01 0.000000e+00
7.260000e-01 3.847500e-01 0.000000e+00
0.000000e+00 5.130000e-01 0.000000e+00
1.815000e-01 5.130000e-01 0.000000e+00
3.630000e-01 5.130000e-01 0.000000e+00
5.445000e-01 5.130000e-01 0.000000e+00
7.260000e-01 5.130000e-01 0.000000e+00
7.260000e-01 0.000000e+00 0.000000e+00
9.075000e-01 0.000000e+00 0.000000e+00
1.089000e+00 0.000000e+00 0.000000e+00
1.270500e+00 0.000000e+00 0.000000e+00
1.452000e+00 0.000000e+00 0.000000e+00
7.260000e-01 1.282500e-01 0.000000e+00
9.075000e-01 1.282500e-01 0.000000e+00
1.089000e+00 1.282500e-01 0.000000e+00
1.270500e+00 1.282500e-01 0.000000e+00
1.452000e+00 1.282500e-01 0.000000e+00
7.260000e-01 2.565000e-01 0.000000e+00
9.075000e-01 2.565000e-01 0.000000e+00
1.089000e+00 2.565000e-01 0.000000e+00
1.270500e+00 2.565000e-01 0.000000e+00
1.452000e+00 2.565000e-01 0.000000e+00
7.260000e-01 3.847500e-01 0.000000e+00
9.075000e-01 3.847500e-01 0.000000e+00
1.089000e+00 3.847500e-01 0.000000e+00
1.270500e+00 3.847500e-01 0.000000e+00
1.452000e+00 3.847500e-01 0.000000e+00
7.260000e-01 5.130000e-01 0.000000e+00
9.075000e-01 5.130000e-01 0.000000e+00
1.089000e+00 5.130000e-01 0.000000e+00
1.270500e+00 5.130000e-01 0.000000e+00
1.452000e+00 5.130000e-01 0.000000e+00
1.452000e+00 0.000000e+00 0.000000e+00
1.633500e+00 0.000000e+00 0.000000e+00
1.815000e+00 0.000000e+00 0.000000e+00
1.996500e+00 0.000000e+00 0.000000e+00
2.178000e+00 0.000000e+00 0.000000e+00
1.452000e+00 1.282500e-01 0.000000e+00
1.633500e+00 1.282500e-01 0.000000e+00
1.815000e+00 1.282500e-01 0.000000e+00
1.996500e+00 1.282500e-01 0.000000e+00
2.178000e+00 1.282500e-01 0.000000e+00
1.452000e+00 2.565000e-01 0.000000e+00
1.633500e+00 2.565000e-01 0.000000e+00
1.815000e+00 2.565000e-01 0.000000e+00
1.996500e+00 2.565000e-01 0.000000e+00
2.178000e+00 2.565000e-01 0.000000e+00
1.452000e+00 3.847500e-01 0.000000e+00
1.633500e+00 3.847500e-01 0.000000e+00
1.815000e+00 3.847500e-01 0.000000e+00
1.996500e+00 3.847500e-01 0.000000e+00
2.178000e+00 3.847500e-01 0.000000e+00
1.452000e+00 5.130000e-01 0.000000e+00
1.633500e+00 5.130000e-01 0.000000e+00
1.815000e+00 5.130000e-01 0.000000e+00
1.996500e+00 5.130000e-01 0.000000e+00
2.178000e+00 5.130000e-01 0.000000e+00
2.178000e+00 0.000000e+00 0.000000e+00
2.359500e+00 0.000000e+00 0.000000e+00
2.541000e+00 0.000000e+00 0.000000e+00
2.722500e+00 0.000000e+00 0.000000e+00
2.904000e+00 0.000000e+00 0.000000e+00
2.178000e+00 1.282500e-01 0.000000e+00
2.359500e+00 1.282500e-01 0.000000e+00
2.541000e+00 1.282500e-01 0.000000e+00
2.722500e+00 1.282500e-01 0.000000e+00
2.904000e+00 1.282500e-01 0.000000e+00
2.178000e+00 2.565000e-01 0.000000e+00
2.359500e+00 2.565000e-01 0.000000e+00
2.541000e+00 2.565000e-01 0.000000e+00
2.722500e+00 2.565000e-01 0.000000e+00
2.904000e+00 2.565000e-01 0.000000e+00
2.178000e+00 3.847500e-01 0.000000e+00
2.359500e+00 3.847500e-01 0.000000e+00
2.541000e+00 3.847500e-01 0.000000e+00
2.722500e+00 3.847500e-01 0.000000e+00
2.904000e+00 3.847500e-01 0.000000e+00
2.178000e+00 5.130000e-01 0.000000e+00
2.359500e+00 5.130000e-01 0.000000e+00
2.541000e+00 5.130000e-01 0.000000e+00
2.722500e+00 5.130000e-01 0.000000e+00
2.904000e+00 5.130000e-01 0.000000e+00
2.904000e+00 0.000000e+00 0.000000e+00
3.085500e+00 0.000000e+00 0.000000e+00
3.267000e+00 0.000000e+00 0.000000e+00
3.448500e+00 0.000000e+00 0.000000e+00
3.630000e+00 0.000000e+00 0.000000e+00
2.904000e+00 1.282500e-01 0.000000e+00
3.085500e+00 1.282500e-01 0.000000e+00
3.267000e+00 1.282500e-01 0.000000e+00
3.448500e+00 1.282500e-01 0.000000e+00
3.630000e+00 1.282500e-01 0.000000e+00
2.904000e+00 2.565000e-01 0.000000e+00
3.085500e+00 2.565000e-01 0.000000e+00
3.267000e+00 2.565000e-01 0.000000e+00
3.448500e+00 2.565000e-01 0.000000e+00
3.630000e+00 2.565000e-01 0.000000e+00
2.904000e+00 3.847500e-01 0.000000e+00
3.085500e+00 3.847500e-01 0.000000e+00
3.267000e+00 3.847500e-01 0.000000e+00
3.448500e+00 3.847500e-01 0.000000e+00
3.630000e+00 3.847500e-01 0.000000e+00
2.904000e+00 5.130000e-01 0.000000e+00
[...]
<PointData>
<DataArray type="Float32" Name="V1" format="ascii">
0.000000e+00
0.000000e+00
0.000000e+00
0.000000e+00
0.000000e+00
1.264110e-02
1.103450e-02
9.648390e-03
8.482730e-03
7.537540e-03
2.028400e-02
1.822780e-02
1.639030e-02
1.477160e-02
1.337150e-02
2.292870e-02
2.157990e-02
2.022590e-02
1.886660e-02
1.750200e-02
2.057510e-02
2.109070e-02
2.115490e-02
2.076770e-02
1.992890e-02
0.000000e+00
0.000000e+00
0.000000e+00
0.000000e+00
0.000000e+00
7.537540e-03
6.472280e-03
5.638570e-03
5.036410e-03
4.665810e-03
1.337150e-02
1.178540e-02
1.050770e-02
9.538350e-03
8.877450e-03
1.750200e-02
1.593940e-02
1.460730e-02
1.350580e-02
1.263490e-02
1.992890e-02
1.893420e-02
1.793750e-02
1.693880e-02
1.593820e-02
0.000000e+00
0.000000e+00
0.000000e+00
0.000000e+00
0.000000e+00
4.665810e-03
4.387000e-03
4.174350e-03
4.027880e-03
3.947560e-03
8.877450e-03
8.356160e-03
7.950150e-03
7.659450e-03
7.484030e-03
1.263490e-02
1.190750e-02
1.132740e-02
1.089470e-02
1.060940e-02
1.593820e-02
1.504090e-02
1.430610e-02
1.373370e-02
1.332370e-02
0.000000e+00
0.000000e+00
0.000000e+00
0.000000e+00
0.000000e+00
3.947560e-03
3.779670e-03
3.880930e-03
4.251320e-03
4.890860e-03
7.484030e-03
7.113280e-03
7.188720e-03
7.710360e-03
8.678200e-03
1.060940e-02
1.000080e-02
9.923370e-03
1.037710e-02
1.136200e-02
1.332370e-02
1.244230e-02
1.208490e-02
1.225160e-02
1.294230e-02
0.000000e+00
0.000000e+00
0.000000e+00
0.000000e+00
0.000000e+00
4.890860e-03
4.702060e-03
4.128190e-03
3.169260e-03
1.825260e-03
8.678200e-03
8.112490e-03
6.863670e-03
4.931730e-03
2.316660e-03
1.136200e-02
1.023130e-02
8.206450e-03
5.287410e-03
1.474200e-03
1.294230e-02
1.105850e-02
8.156520e-03
4.236310e-03
-7.021310e-04
0.000000e+00
0.000000e+00
0.000000e+00
0.000000e+00
0.000000e+00
1.825260e-03
4.748840e-04
-1.927450e-03
-5.381730e-03
-9.887980e-03
2.316660e-03
-3.801540e-04
-4.572990e-03
-1.026180e-02
-1.744670e-02
1.474200e-03
-2.565110e-03
-7.936620e-03
-1.464030e-02
-2.267620e-02
-7.021310e-04
-6.080000e-03
-1.201830e-02
-1.851720e-02
-2.557650e-02
0.000000e+00
0.000000e+00
0.000000e+00
0.000000e+00
0.000000e+00
-9.887980e-03
-1.068460e-02
-1.083840e-02
-1.034940e-02
-9.217590e-03
-1.744670e-02
-1.822380e-02
-1.808550e-02
-1.703190e-02
-1.506290e-02
-2.267620e-02
-2.261760e-02
-2.174130e-02
-2.004750e-02
-1.753600e-02
-2.557650e-02
-2.386600e-02
-2.180590e-02
-1.939620e-02
-1.663690e-02
0.000000e+00
0.000000e+00
0.000000e+00
0.000000e+00
0.000000e+00
-9.217590e-03
-8.861220e-03
-7.686150e-03
-5.692360e-03
-2.879860e-03
-1.506290e-02
-1.433100e-02
-1.229930e-02
-8.967980e-03
-4.336950e-03
-1.753600e-02
-1.640920e-02
-1.383950e-02
-9.826860e-03
-4.371290e-03
-1.663690e-02
-1.509600e-02
-1.230670e-02
-8.269000e-03
-2.982870e-03
0.000000e+00
0.000000e+00
0.000000e+00
0.000000e+00
0.000000e+00
-2.879860e-03
-8.214770e-04
9.710800e-04
2.497820e-03
3.758730e-03
-4.336950e-03
-8.600550e-04
2.153940e-03
4.705020e-03
6.793210e-03
-4.371290e-03
-1.157340e-04
3.548570e-03
6.621620e-03
9.103420e-03
-2.982870e-03
1.411490e-03
5.154980e-03
8.247610e-03
1.068940e-02
0.000000e+00
0.000000e+00
0.000000e+00
0.000000e+00
0.000000e+00
3.758730e-03
5.060110e-03
6.191660e-03
7.153390e-03
7.945290e-03
6.793210e-03
8.974410e-03
1.086170e-02
1.245510e-02
1.375470e-02
9.103420e-03
1.174290e-02
1.401020e-02
1.590530e-02
1.742820e-02
1.068940e-02
1.336560e-02
1.563700e-02
1.750380e-02
1.896580e-02
2.057510e-02
2.109070e-02
2.115490e-02
2.076770e-02
1.992890e-02
2.078850e-02
2.098050e-02
2.100440e-02
2.086010e-02
2.054760e-02
2.103660e-02
2.097130e-02
2.092520e-02
2.089830e-02
2.089050e-02
2.131930e-02
2.106300e-02
2.091730e-02
2.088220e-02
2.095760e-02
2.163650e-02
2.125560e-02
2.098070e-02
2.081180e-02
2.074890e-02
1.992890e-02
1.893420e-02
1.793750e-02
1.693880e-02
1.593820e-02
2.054760e-02
2.005800e-02
1.948870e-02
1.883980e-02
1.811120e-02
2.089050e-02
2.076480e-02
2.052060e-02
2.015800e-02
1.967700e-02
2.095760e-02
2.105460e-02
2.103330e-02
2.089360e-02
2.063560e-02
2.074890e-02
2.092750e-02
2.102660e-02
2.104640e-02
2.098690e-02
1.593820e-02
1.504090e-02
1.430610e-02
1.373370e-02
1.332370e-02
1.811120e-02
1.728910e-02
1.658340e-02
1.599410e-02
1.552140e-02
1.967700e-02
1.895660e-02
1.831990e-02
1.776710e-02
1.729800e-02
2.063560e-02
2.004340e-02
1.951570e-02
1.905240e-02
1.865350e-02
2.098690e-02
2.054970e-02
2.017070e-02
1.985010e-02
1.958780e-02
1.332370e-02
1.244230e-02
1.208490e-02
1.225160e-02
1.294230e-02
1.552140e-02
1.426150e-02
1.363860e-02
1.365260e-02
1.430370e-02
1.729800e-02
1.572930e-02
1.491110e-02
1.484310e-02
1.552550e-02
1.865350e-02
1.684590e-02
1.590240e-02
1.582300e-02
1.660780e-02
1.958780e-02
1.761110e-02
1.661250e-02
1.659230e-02
1.755040e-02
1.294230e-02
1.105850e-02
8.156520e-03
4.236310e-03
-7.021310e-04
1.430370e-02
1.165860e-02
8.093710e-03
3.608990e-03
-1.795540e-03
1.552550e-02
1.235030e-02
8.385180e-03
3.630260e-03
-1.914480e-03
1.660780e-02
1.313350e-02
9.030940e-03
4.300120e-03
-1.058960e-03
1.755040e-02
1.400820e-02
1.003100e-02
5.618570e-03
7.710150e-04
-7.021310e-04
-6.080000e-03
-1.201830e-02
-1.851720e-02
-2.557650e-02
-1.795540e-03
-6.741260e-03
-1.233220e-02
-1.856840e-02
-2.544970e-02
-1.914480e-03
-5.825270e-03
-1.071050e-02
-1.657020e-02
-2.340430e-02
-1.058960e-03
-3.332050e-03
-7.153290e-03
-1.252270e-02
-1.944030e-02
7.710150e-04
7.384270e-04
-1.660530e-03
-6.425860e-03
-1.355760e-02
-2.557650e-02
-2.386600e-02
-2.180590e-02
-1.939620e-02
-1.663690e-02
-2.544970e-02
-2.342270e-02
-2.111930e-02
-1.853950e-02
-1.568350e-02
-2.340430e-02
-2.144410e-02
-1.909620e-02
-1.636050e-02
-1.323700e-02
-1.944030e-02
-1.793040e-02
-1.573670e-02
-1.285910e-02
-9.297530e-03
-1.355760e-02
-1.288160e-02
-1.104080e-02
-8.035290e-03
-3.864990e-03
-1.663690e-02
-1.509600e-02
-1.230670e-02
-8.269000e-03
-2.982870e-03
-1.568350e-02
-1.482330e-02
-1.235330e-02
-8.273440e-03
-2.583740e-03
-1.323700e-02
-1.301500e-02
-1.099190e-02
-7.167660e-03
-1.542310e-03
-9.297530e-03
-9.671130e-03
-8.222500e-03
-4.951650e-03
1.414140e-04
-3.864990e-03
-4.791630e-03
-4.045110e-03
-1.625420e-03
2.467440e-03
-2.982870e-03
1.411490e-03
5.154980e-03
8.247610e-03
1.068940e-02
-2.583740e-03
2.254320e-03
6.267590e-03
9.456060e-03
1.181970e-02
-1.542310e-03
3.515850e-03
7.620980e-03
1.077310e-02
1.297210e-02
1.414140e-04
5.196080e-03
9.215150e-03
1.219860e-02
1.414650e-02
2.467440e-03
7.295010e-03
1.105010e-02
1.373270e-02
1.534290e-02
1.068940e-02
1.336560e-02
1.563700e-02
1.750380e-02
1.896580e-02
1.181970e-02
1.432760e-02
1.650860e-02
1.836260e-02
1.988970e-02
1.297210e-02
1.524760e-02
1.727270e-02
1.904750e-02
2.057190e-02
1.414650e-02
1.612540e-02
1.792930e-02
1.955830e-02
2.101240e-02
1.534290e-02
1.696100e-02
1.847840e-02
1.989510e-02
2.121110e-02
2.163650e-02
2.125560e-02
2.098070e-02
2.081180e-02
2.074890e-02
2.197900e-02
2.160120e-02
2.131270e-02
2.111340e-02
2.100330e-02
2.233590e-02
2.198470e-02
2.170370e-02
2.149270e-02
2.135190e-02
2.270730e-02
2.240610e-02
2.215360e-02
2.194980e-02
2.179480e-02
2.309330e-02
2.286540e-02
2.266250e-02
2.248470e-02
2.233200e-02
2.074890e-02
2.092750e-02
2.102660e-02
2.104640e-02
2.098690e-02
2.100330e-02
2.109280e-02
2.115680e-02
2.119510e-02
2.120770e-02
2.135190e-02
2.136140e-02
2.138440e-02
2.142100e-02
2.147120e-02
2.179480e-02
2.173310e-02
2.170960e-02
2.172430e-02
2.177730e-02
2.233200e-02
2.220790e-02
2.213220e-02
2.210500e-02
2.212620e-02
2.098690e-02
2.054970e-02
2.017070e-02
1.985010e-02
1.958780e-02
2.120770e-02
2.082760e-02
2.053860e-02
2.034070e-02
2.023390e-02
2.147120e-02
2.112390e-02
2.089710e-02
2.079080e-02
2.080500e-02
2.177730e-02
2.143860e-02
2.124640e-02
2.120060e-02
2.130120e-02
2.212620e-02
2.177180e-02
2.158630e-02
2.156990e-02
2.172250e-02
1.958780e-02
1.761110e-02
1.661250e-02
1.659230e-02
1.755040e-02
2.023390e-02
1.824450e-02
1.727890e-02
1.733690e-02
1.841870e-02
2.080500e-02
1.888310e-02
1.798400e-02
1.810770e-02
1.925400e-02
2.130120e-02
1.952690e-02
1.872800e-02
1.890450e-02
2.005630e-02
2.172250e-02
2.017580e-02
1.951080e-02
1.972730e-02
2.082550e-02
1.755040e-02
1.400820e-02
1.003100e-02
5.618570e-03
7.710150e-04
1.841870e-02
1.527760e-02
1.174670e-02
7.826150e-03
3.515930e-03
1.925400e-02
1.672090e-02
1.375860e-02
1.036720e-02
6.546680e-03
2.005630e-02
1.833820e-02
1.606670e-02
1.324170e-02
9.863260e-03
2.082550e-02
2.012960e-02
1.867100e-02
1.644970e-02
1.346570e-02
7.710150e-04
7.384270e-04
-1.660530e-03
-6.425860e-03
-1.355760e-02
3.515930e-03
5.818520e-03
5.116560e-03
1.410070e-03
-5.300950e-03
6.546680e-03
1.070320e-02
1.153870e-02
9.053210e-03
3.246660e-03
9.863260e-03
1.539250e-02
1.760600e-02
1.650350e-02
1.208530e-02
1.346570e-02
1.988640e-02
2.331820e-02
2.376110e-02
2.121490e-02
-1.355760e-02
-1.288160e-02
-1.104080e-02
-8.035290e-03
-3.864990e-03
-5.300950e-03
-6.078210e-03
-5.092770e-03
-2.344620e-03
2.166240e-03
3.246660e-03
1.504160e-03
1.859190e-03
4.311740e-03
8.861820e-03
1.208530e-02
9.865550e-03
9.815050e-03
1.193380e-02
1.622170e-02
2.121490e-02
1.900600e-02
1.877480e-02
2.052150e-02
2.424600e-02
-3.864990e-03
-4.791630e-03
-4.045110e-03
-1.625420e-03
2.467440e-03
2.166240e-03
9.831140e-04
1.156320e-03
2.685870e-03
5.571740e-03
8.861820e-03
7.347600e-03
6.895480e-03
7.505450e-03
9.177530e-03
1.622170e-02
1.430180e-02
1.317240e-02
1.283330e-02
1.328480e-02
2.424600e-02
2.184580e-02
1.998700e-02
1.866950e-02
1.789360e-02
2.467440e-03
7.295010e-03
1.105010e-02
1.373270e-02
1.534290e-02
5.571740e-03
9.902990e-03
1.319640e-02
1.545190e-02
1.666970e-02
9.177530e-03
1.283640e-02
1.552790e-02
1.725220e-02
1.800910e-02
1.328480e-02
1.609520e-02
1.804470e-02
1.913340e-02
1.936130e-02
1.789360e-02
1.967940e-02
2.074670e-02
2.109560e-02
2.072610e-02
1.534290e-02
1.696100e-02
1.847840e-02
1.989510e-02
2.121110e-02
1.666970e-02
1.808090e-02
1.936840e-02
2.053220e-02
2.157230e-02
1.800910e-02
1.921220e-02
2.027410e-02
2.119460e-02
2.197390e-02
1.936130e-02
2.035510e-02
2.119540e-02
2.188230e-02
2.241580e-02
2.072610e-02
2.150940e-02
2.213250e-02
2.259540e-02
2.289800e-02
2.309330e-02
2.286540e-02
2.266250e-02
2.248470e-02
2.233200e-02
2.348320e-02
2.330150e-02
2.313770e-02
2.299180e-02
2.286390e-02
2.386930e-02
2.373050e-02
2.360280e-02
2.348620e-02
2.338080e-02
2.425160e-02
2.415230e-02
2.405770e-02
2.396780e-02
2.388270e-02
2.463000e-02
2.456690e-02
2.450250e-02
2.443670e-02
2.436950e-02
2.233200e-02
2.220790e-02
2.213220e-02
2.210500e-02
2.212620e-02
2.286390e-02
2.272990e-02
2.263730e-02
2.258610e-02
2.257630e-02
2.338080e-02
2.324630e-02
2.314620e-02
2.308050e-02
2.304900e-02
2.388270e-02
2.375730e-02
2.365910e-02
2.358810e-02
2.354440e-02
2.436950e-02
2.426270e-02
2.417590e-02
2.410910e-02
2.406240e-02
2.212620e-02
2.177180e-02
2.158630e-02
2.156990e-02
2.172250e-02
2.257630e-02
2.224510e-02
2.206360e-02
2.203170e-02
2.214950e-02
2.304900e-02
2.275010e-02
2.258070e-02
2.254070e-02
2.263020e-02
2.354440e-02
2.328680e-02
2.313760e-02
2.309690e-02
2.316460e-02
2.406240e-02
2.385510e-02
2.373440e-02
2.370020e-02
2.375260e-02
2.172250e-02
2.017580e-02
1.951080e-02
1.972730e-02
2.082550e-02
2.214950e-02
2.097190e-02
2.045970e-02
2.061270e-02
2.143100e-02
2.263020e-02
2.178400e-02
2.142230e-02
2.154520e-02
2.215270e-02
2.316460e-02
2.261200e-02
2.239880e-02
2.252500e-02
2.299070e-02
2.375260e-02
2.345590e-02
2.338900e-02
2.355200e-02
2.394490e-02
2.082550e-02
2.012960e-02
1.867100e-02
1.644970e-02
1.346570e-02
2.143100e-02
2.173700e-02
2.123200e-02
1.991590e-02
1.778880e-02
2.215270e-02
2.310030e-02
2.335750e-02
2.292420e-02
2.180050e-02
2.299070e-02
2.421950e-02
2.504750e-02
2.547460e-02
2.550080e-02
2.394490e-02
2.509450e-02
2.630190e-02
2.756700e-02
2.888980e-02
1.346570e-02
1.988640e-02
2.331820e-02
2.376110e-02
2.121490e-02
1.778880e-02
2.382860e-02
2.771050e-02
2.943440e-02
2.900030e-02
2.180050e-02
2.748290e-02
3.164590e-02
3.428950e-02
3.541360e-02
2.550080e-02
3.084930e-02
3.512450e-02
3.832630e-02
4.045480e-02
2.888980e-02
3.392790e-02
3.814630e-02
4.154500e-02
4.412390e-02
2.121490e-02
1.900600e-02
1.877480e-02
2.052150e-02
2.424600e-02
2.900030e-02
2.749320e-02
2.730980e-02
2.845020e-02
3.091420e-02
3.541360e-02
3.457620e-02
3.451430e-02
3.522780e-02
3.671670e-02
4.045480e-02
4.025510e-02
4.038830e-02
4.085450e-02
4.165360e-02
4.412390e-02
4.452970e-02
4.493190e-02
4.533020e-02
4.572480e-02
2.424600e-02
2.184580e-02
1.998700e-02
1.866950e-02
1.789360e-02
3.091420e-02
2.817270e-02
2.582360e-02
2.386690e-02
2.230280e-02
3.671670e-02
3.370290e-02
3.094420e-02
2.844080e-02
2.619250e-02
4.165360e-02
3.843650e-02
3.534900e-02
3.239100e-02
2.956270e-02
4.572480e-02
4.237340e-02
3.903770e-02
3.571770e-02
3.241340e-02
1.789360e-02
1.967940e-02
2.074670e-02
2.109560e-02
2.072610e-02
2.230280e-02
2.302880e-02
2.322960e-02
2.290490e-02
2.205490e-02
2.619250e-02
2.600050e-02
2.546370e-02
2.458210e-02
2.335560e-02
2.956270e-02
2.859430e-02
2.744910e-02
2.612700e-02
2.462820e-02
3.241340e-02
3.081030e-02
2.918580e-02
2.753990e-02
2.587260e-02
2.072610e-02
2.150940e-02
2.213250e-02
2.259540e-02
2.289800e-02
2.205490e-02
2.268130e-02
2.312670e-02
2.339120e-02
2.347480e-02
2.335560e-02
2.380840e-02
2.406840e-02
2.413570e-02
2.401030e-02
2.462820e-02
2.489060e-02
2.495750e-02
2.482880e-02
2.450450e-02
2.587260e-02
2.592800e-02
2.579400e-02
2.547040e-02
2.495740e-02
2.463000e-02
2.456690e-02
2.450250e-02
2.443670e-02
2.436950e-02
2.499690e-02
2.496460e-02
2.492870e-02
2.488930e-02
2.484630e-02
2.534870e-02
2.534520e-02
2.533680e-02
2.532350e-02
2.530520e-02
2.568540e-02
2.570890e-02
2.572680e-02
2.573930e-02
2.574610e-02
2.600690e-02
2.605550e-02
2.609880e-02
2.613670e-02
2.616910e-02
2.436950e-02
2.426270e-02
2.417590e-02
2.410910e-02
2.406240e-02
2.484630e-02
2.474860e-02
2.467410e-02
2.462300e-02
2.459520e-02
2.530520e-02
2.521770e-02
2.515690e-02
2.512280e-02
2.511530e-02
2.574610e-02
2.567020e-02
2.562440e-02
2.560850e-02
2.562260e-02
2.616910e-02
2.610610e-02
2.607640e-02
2.608010e-02
2.611720e-02
2.406240e-02
2.385510e-02
2.373440e-02
2.370020e-02
2.375260e-02
2.459520e-02
2.441530e-02
2.432530e-02
2.432540e-02
2.441550e-02
2.511530e-02
2.496400e-02
2.490380e-02
2.493490e-02
2.505710e-02
2.562260e-02
2.550120e-02
2.546990e-02
2.552870e-02
2.567760e-02
2.611720e-02
2.602700e-02
2.602360e-02
2.610690e-02
2.627690e-02
2.375260e-02
2.345590e-02
2.338900e-02
2.355200e-02
2.394490e-02
2.441550e-02
2.422250e-02
2.425930e-02
2.452570e-02
2.502200e-02
2.505710e-02
2.495360e-02
2.507250e-02
2.541370e-02
2.597740e-02
2.567760e-02
2.564930e-02
2.582880e-02
2.621600e-02
2.681110e-02
2.627690e-02
2.630950e-02
2.652800e-02
2.693260e-02
2.752310e-02
2.394490e-02
2.509450e-02
2.630190e-02
2.756700e-02
2.888980e-02
2.502200e-02
2.597430e-02
2.723950e-02
2.881740e-02
3.070810e-02
2.597740e-02
2.681630e-02
2.808240e-02
2.977570e-02
3.189610e-02
2.681110e-02
2.762040e-02
2.883070e-02
3.044180e-02
3.245380e-02
2.752310e-02
2.838680e-02
2.948440e-02
3.081580e-02
3.238120e-02
2.888980e-02
3.392790e-02
3.814630e-02
4.154500e-02
4.412390e-02
3.070810e-02
3.593870e-02
4.041460e-02
4.413580e-02
4.710240e-02
3.189610e-02
3.697490e-02
4.142530e-02
4.524740e-02
4.844110e-02
3.245380e-02
3.703660e-02
4.117850e-02
4.487970e-02
4.814000e-02
3.238120e-02
3.612380e-02
3.967430e-02
4.303270e-02
4.619900e-02
4.412390e-02
4.452970e-02
4.493190e-02
4.533020e-02
4.572480e-02
4.710240e-02
4.800510e-02
4.858100e-02
4.883020e-02
4.875270e-02
4.844110e-02
4.971220e-02
5.041510e-02
5.054980e-02
5.011630e-02
4.814000e-02
4.965100e-02
5.043400e-02
5.048880e-02
4.981550e-02
4.619900e-02
4.782170e-02
4.863780e-02
4.864740e-02
4.785050e-02
4.572480e-02
4.237340e-02
3.903770e-02
3.571770e-02
3.241340e-02
4.875270e-02
4.499760e-02
4.133280e-02
3.775830e-02
3.427400e-02
5.011630e-02
4.628950e-02
4.259700e-02
3.903890e-02
3.561510e-02
4.981550e-02
4.624890e-02
4.283020e-02
3.955950e-02
3.643670e-02
4.785050e-02
4.487600e-02
4.203250e-02
3.932010e-02
3.673870e-02
3.241340e-02
3.081030e-02
2.918580e-02
2.753990e-02
2.587260e-02
3.427400e-02
3.232990e-02
3.048630e-02
2.874310e-02
2.710030e-02
3.561510e-02
3.346660e-02
3.150650e-02
2.973490e-02
2.815170e-02
3.643670e-02
3.422020e-02
3.224640e-02
3.051530e-02
2.902680e-02
3.673870e-02
3.459090e-02
3.270610e-02
3.108430e-02
2.972560e-02
2.587260e-02
2.592800e-02
2.579400e-02
2.547040e-02
2.495740e-02
2.710030e-02
2.680340e-02
2.643110e-02
2.598330e-02
2.546010e-02
2.815170e-02
2.756680e-02
2.700390e-02
2.646280e-02
2.594360e-02
2.902680e-02
2.821820e-02
2.751230e-02
2.690890e-02
2.640810e-02
2.972560e-02
2.875770e-02
2.795630e-02
2.732160e-02
2.685330e-02
2.600690e-02
2.605550e-02
2.609880e-02
2.613670e-02
2.616910e-02
2.630990e-02
2.638010e-02
2.644500e-02
2.650470e-02
2.655920e-02
2.659390e-02
2.668460e-02
2.676970e-02
2.684920e-02
2.692300e-02
2.685910e-02
2.696930e-02
2.707290e-02
2.717000e-02
2.726060e-02
2.710540e-02
2.723390e-02
2.735450e-02
2.746710e-02
2.757190e-02
2.616910e-02
2.610610e-02
2.607640e-02
2.608010e-02
2.611720e-02
2.655920e-02
2.651970e-02
2.650980e-02
2.652960e-02
2.657890e-02
2.692300e-02
2.690670e-02
2.691610e-02
2.695120e-02
2.701200e-02
2.726060e-02
2.726710e-02
2.729520e-02
2.734510e-02
2.741660e-02
2.757190e-02
2.760080e-02
2.764720e-02
2.771120e-02
2.779260e-02
2.611720e-02
2.602700e-02
2.602360e-02
2.610690e-02
2.627690e-02
2.657890e-02
2.652710e-02
2.655050e-02
2.664890e-02
2.682250e-02
2.701200e-02
2.699420e-02
2.704120e-02
2.715290e-02
2.732940e-02
2.741660e-02
2.742830e-02
2.749570e-02
2.761880e-02
2.779750e-02
2.779260e-02
2.782940e-02
2.791400e-02
2.804650e-02
2.822690e-02
2.627690e-02
2.630950e-02
2.652800e-02
2.693260e-02
2.752310e-02
2.682250e-02
2.692260e-02
2.717600e-02
2.758290e-02
2.814320e-02
2.732940e-02
2.748150e-02
2.775970e-02
2.816410e-02
2.869470e-02
2.779750e-02
2.798620e-02
2.827920e-02
2.867630e-02
2.917760e-02
2.822690e-02
2.843680e-02
2.873430e-02
2.911930e-02
2.959180e-02
2.752310e-02
2.838680e-02
2.948440e-02
3.081580e-02
3.238120e-02
2.814320e-02
2.901650e-02
3.004910e-02
3.124090e-02
3.259200e-02
2.869470e-02
2.955750e-02
3.052530e-02
3.159810e-02
3.277590e-02
2.917760e-02
3.000970e-02
3.091290e-02
3.188730e-02
3.293290e-02
2.959180e-02
3.037310e-02
3.121200e-02
3.210860e-02
3.306290e-02
3.238120e-02
3.612380e-02
3.967430e-02
4.303270e-02
4.619900e-02
3.259200e-02
3.552430e-02
3.834630e-02
4.105780e-02
4.365890e-02
3.277590e-02
3.505690e-02
3.727590e-02
3.943270e-02
4.152740e-02
3.293290e-02
3.472160e-02
3.646310e-02
3.815740e-02
3.980460e-02
3.306290e-02
3.451820e-02
3.590790e-02
3.723190e-02
3.849030e-02
4.619900e-02
4.782170e-02
4.863780e-02
4.864740e-02
4.785050e-02
4.365890e-02
4.513880e-02
4.595610e-02
4.611100e-02
4.560330e-02
4.152740e-02
4.284090e-02
4.362400e-02
4.387670e-02
4.359920e-02
3.980460e-02
4.092800e-02
4.164130e-02
4.194470e-02
4.183810e-02
3.849030e-02
3.940010e-02
4.000830e-02
4.031490e-02
4.031990e-02
4.785050e-02
4.487600e-02
4.203250e-02
3.932010e-02
3.673870e-02
4.560330e-02
4.330290e-02
4.105170e-02
3.885000e-02
3.669750e-02
4.359920e-02
4.186390e-02
4.011150e-02
3.834190e-02
3.655500e-02
4.183810e-02
4.055920e-02
3.921180e-02
3.779580e-02
3.631130e-02
4.031990e-02
3.938860e-02
3.835260e-02
3.721180e-02
3.596640e-02
3.673870e-02
3.459090e-02
3.270610e-02
3.108430e-02
2.972560e-02
3.669750e-02
3.474800e-02
3.302120e-02
3.151700e-02
3.023550e-02
3.655500e-02
3.479580e-02
3.322330e-02
3.183780e-02
3.063900e-02
3.631130e-02
3.473420e-02
3.331260e-02
3.204650e-02
3.093590e-02
3.596640e-02
3.456320e-02
3.328880e-02
3.214320e-02
3.112640e-02
2.972560e-02
2.875770e-02
2.795630e-02
2.732160e-02
2.685330e-02
3.023550e-02
2.924130e-02
2.841440e-02
2.775480e-02
2.726250e-02
3.063900e-02
2.963920e-02
2.880350e-02
2.813220e-02
2.762500e-02
3.093590e-02
2.995120e-02
2.912380e-02
2.845370e-02
2.794090e-02
3.112640e-02
3.017740e-02
2.937510e-02
2.871940e-02
2.821020e-02
2.710540e-02
2.723390e-02
2.735450e-02
2.746710e-02
2.757190e-02
2.733260e-02
2.747420e-02
2.760790e-02
2.773370e-02
2.785160e-02
2.754220e-02
2.769520e-02
2.784010e-02
2.797680e-02
2.810540e-02
2.773410e-02
2.789690e-02
2.805110e-02
2.819660e-02
2.833340e-02
2.790840e-02