<?xml version="1.0"?>
<VTKFile type="UnstructuredGrid" version="0.1" byte_order="LittleEndian" compressor="vtkZLibDataCompressor">
<UnstructuredGrid>
<Piece NumberOfPoints="2500" NumberOfCells="1600">
<Points>
<DataArray type="Float32" NumberOfComponents="3" format="ascii">
-3.630000e+00 0.000000e+00 0.000000e+00
-3.448500e+00 0.000000e+00 0.000000e+00
-3.267000e+00 0.000000e+00 0.000000e+00
-3.085500e+00 0.000000e+00 0.000000e+00
-2.904000e+00 0.000000e+00 0.000000e+00
-3.630000e+00 1.282500e-01 0.000000e+00
-3.448500e+00 1.282500e-01 0.000000e+00
-3.267000e+00 1.282500e-01 0.000000e+00
-3.085500e+00 1.282500e-01 0.000000e+00
-2.904000e+00 1.282500e-01 0.000000e+00
-3.630000e+00 2.565000e-01 0.000000e+00
-3.448500e+00 2.565000e-01 0.000000e+00
-3.267000e+00 2.565000e-01 0.000000e+00
-3.085500e+00 2.565000e-01 0.000000e+00
-2.904000e+00 2.565000e-01 0.000000e+00
-3.630000e+00 3.847500e-01 0.000000e+00
-3.448500e+00 3.847500e-01 0.000000e+00
-3.267000e+00 3.847500e-01 0.000000e+00
-3.085500e+00 3.847500e-01 0.000000e+00
-2.904000e+00 3.847500e-01 0.000000e+00
-3.630000e+00 5.130000e-01 0.000000e+00
-3.448500e+00 5.130000e-01 0.000000e+00
-3.267000e+00 5.130000e-01 0.000000e+00
-3.085500e+00 5.130000e-01 0.000000e+00
-2.904000e+00 5.130000e-01 0.000000e+00
-2.904000e+00 0.000000e+00 0.000000e+00
-2.722500e+00 0.000000e+00 0.000000e+00
-2.541000e+00 0.000000e+00 0.000000e+00
-2.359500e+00 0.000000e+00 0.000000e+00
-2.178000e+00 0.000000e+00 0.000000e+00
-2.904000e+00 1.282500e-01 0.000000e+00
-2.722500e+00 1.282500e-01 0.000000e+00
-2.541000e+00 1.282500e-01 0.000000e+00
-2.359500e+00 1.282500e-01 0.000000e+00
-2.178000e+00 1.282500e-01 0.000000e+00
-2.904000e+00 2.565000e-01 0.000000e+00
-2.722500e+00 2.565000e-01 0.000000e+00
-2.541000e+00 2.565000e-01 0.000000e+00
-2.359500e+00 2.565000e-01 0.000000e+00
-2.178000e+00 2.565000e-01 0.000000e+00
-2.904000e+00 3.847500e-01 0.000000e+00
-2.722500e+00 3.847500e-01 0.000000e+00
-2.541000e+00 3.847500e-01 0.000000e+00
-2.359500e+00 3.847500e-01 0.000000e+00
-2.178000e+00 3.847500e-01 0.000000e+00
-2.904000e+00 5.130000e-01 0.000000e+00
-2.722500e+00 5.130000e-01 0.000000e+00
-2.541000e+00 5.130000e-01 0.000000e+00
-2.359500e+00 5.130000e-01 0.000000e+00
-2.178000e+00 5.130000e-01 0.000000e+00
-2.178000e+00 0.000000e+00 0.000000e+00
-1.996500e+00 0.000000e+00 0.000000e+00
-1.815000e+00 0.000000e+00 0.000000e+00
-1.633500e+00 0.000000e+00 0.000000e+00
-1.452000e+00 0.000000e+00 0.000000e+00
-2.178000e+00 1.282500e-01 0.000000e+00
-1.996500e+00 1.282500e-01 0.000000e+00
-1.815000e+00 1.282500e-01 0.000000e+00
-1.633500e+00 1.282500e-01 0.000000e+00
-1.452000e+00 1.282500e-01 0.000000e+00
-2.178000e+00 2.565000e-01 0.000000e+00
-1.996500e+00 2.565000e-01 0.000000e+00
-1.815000e+00 2.565000e-01 0.000000e+00
-1.633500e+00 2.565000e-01 0.000000e+00
-1.452000e+00 2.565000e-01 0.000000e+00
-2.178000e+00 3.847500e-01 0.000000e+00
-1.996500e+00 3.847500e-01 0.000000e+00
-1.815000e+00 3.847500e-01 0.000000e+00
-1.633500e+00 3.847500e-01 0.000000e+00
-1.452000e+00 3.847500e-01 0.000000e+00
-2.178000e+00 5.130000e-01 0.000000e+00
-1.996500e+00 5.130000e-01 0.000000e+00
-1.815000e+00 5.130000e-01 0.000000e+00
-1.633500e+00 5.130000e-01 0.000000e+00
-1.452000e+00 5.130000e-01 0.000000e+00
-1.452000e+00 0.000000e+00 0.000000e+00
-1.270500e+00 0.000000e+00 0.000000e+00
-1.089000e+00 0.000000e+00 0.000000e+00
-9.075000e-01 0.000000e+00 0.000000e+00
-7.260000e-01 0.000000e+00 0.000000e+00
-1.452000e+00 1.282500e-01 0.000000e+00
-1.270500e+00 1.282500e-01 0.000000e+00
-1.089000e+00 1.282500e-01 0.000000e+00
-9.075000e-01 1.282500e-01 0.000000e+00
-7.260000e-01 1.282500e-01 0.000000e+00
-1.452000e+00 2.565000e-01 0.000000e+00
-1.270500e+00 2.565000e-01 0.000000e+00
-1.089000e+00 2.565000e-01 0.000000e+00
-9.075000e-01 2.565000e-01 0.000000e+00
-7.260000e-01 2.565000e-01 0.000000e+00
-1.452000e+00 3.847500e-01 0.000000e+00
-1.270500e+00 3.847500e-01 0.000000e+00
-1.089000e+00 3.847500e-01 0.000000e+00
-9.075000e-01 3.847500e-01 0.000000e+00
-7.260000e-01 3.847500e-01 0.000000e+00
-1.452000e+00 5.130000e-01 0.000000e+00
-1.270500e+00 5.130000e-01 0.000000e+00
-1.089000e+00 5.130000e-01 0.000000e+00
-9.075000e-01 5.130000e-01 0.000000e+00
-7.260000e-01 5.130000e-01 0.000000e+00
-7.260000e-01 0.000000e+00 0.000000e+00
-5.445000e-01 0.000000e+00 0.000000e+00
-3.630000e-01 0.000000e+00 0.000000e+00
-1.815000e-01 0.000000e+00 0.000000e+00
0.000000e+00 0.000000e+00 0.000000e+00
-7.260000e-01 1.282500e-01 0.000000e+00
-5.445000e-01 1.282500e-01 0.000000e+00
-3.630000e-01 1.282500e-01 0.000000e+00
-1.815000e-01 1.282500e-01 0.000000e+00
0.000000e+00 1.282500e-01 0.000000e+00
-7.260000e-01 2.565000e-01 0.000000e+00
-5.445000e-01 2.565000e-01 0.000000e+00
-3.630000e-01 2.565000e-01 0.000000e+00
-1.815000e-01 2.565000e-01 0.000000e+00
0.000000e+00 2.565000e-01 0.000000e+00
-7.260000e-01 3.847500e-01 0.000000e+00
-5.445000e-01 3.847500e-01 0.000000e+00
-3.630000e-01 3.847500e-01 0.000000e+00
-1.815000e-01 3.847500e-01 0.000000e+00
0.000000e+00 3.847500e-01 0.000000e+00
-7.260000e-01 5.130000e-01 0.000000e+00
-5.445000e-01 5.130000e-01 0.000000e+00
-3.630000e-01 5.130000e-01 0.000000e+00
-1.815000e-01 5.130000e-01 0.000000e+00
0.000000e+00 5.130000e-01 0.000000e+00
0.000000e+00 0.000000e+00 0.000000e+00
1.815000e-01 0.000000e+00 0.000000e+00
3.630000e-01 0.000000e+00 0.000000e+00
5.445000e-01 0.000000e+00 0.000000e+00
7.260000e-01 0.000000e+00 0.000000e+00
0.000000e+00 1.282500e-01 0.000000e+00
1.815000e-01 1.282500e-01 0.000000e+00
3.630000e-01 1.282500e-01 0.000000e+00
5.445000e-01 1.282500e-01 0.000000e+00
7.260000e-01 1.282500e-01 0.000000e+00
0.000000e+00 2.565000e-01 0.000000e+00
1.815000e-01 2.565000e-01 0.000000e+00
3.630000e-01 2.565000e-01 0.000000e+00
5.445000e-01 2.565000e-01 0.000000e+00
7.260000e-01 2.565000e-01 0.000000e+00
0.000000e+00 3.847500e-01 0.000000e+00
1.815000e-01 3.847500e-01 0.000000e+00
3.630000e-01 3.847500e-01 0.000000e+00
5.445000e-01 3.847500e-01 0.000000e+00
7.260000e-01 3.847500e-01 0.000000e+00
0.000000e+00 5.130000e-01 0.000000e+00
1.815000e-01 5.130000e-01 0.000000e+00
3.630000e-01 5.130000e-01 0.000000e+00
5.445000e-01 5.130000e-01 0.000000e+00
7.260000e-01 5.130000e-01 0.000000e+00
7.260000e-01 0.000000e+00 0.000000e+00
9.075000e-01 0.000000e+00 0.000000e+00
1.089000e+00 0.000000e+00 0.000000e+00
1.270500e+00 0.000000e+00 0.000000e+00
1.452000e+00 0.000000e+00 0.000000e+00
7.260000e-01 1.282500e-01 0.000000e+00
9.075000e-01 1.282500e-01 0.000000e+00
1.089000e+00 1.282500e-01 0.000000e+00
1.270500e+00 1.282500e-01 0.000000e+00
1.452000e+00 1.282500e-01 0.000000e+00
7.260000e-01 2.565000e-01 0.000000e+00
9.075000e-01 2.565000e-01 0.000000e+00
1.089000e+00 2.565000e-01 0.000000e+00
1.270500e+00 2.565000e-01 0.000000e+00
1.452000e+00 2.565000e-01 0.000000e+00
7.260000e-01 3.847500e-01 0.000000e+00
9.075000e-01 3.847500e-01 0.000000e+00
1.089000e+00 3.847500e-01 0.000000e+00
1.270500e+00 3.847500e-01 0.000000e+00
1.452000e+00 3.847500e-01 0.000000e+00
7.260000e-01 5.130000e-01 0.000000e+00
9.075000e-01 5.130000e-01 0.000000e+00
1.089000e+00 5.130000e-01 0.000000e+00
1.270500e+00 5.130000e-01 0.000000e+00
1.452000e+00 5.130000e-01 0.000000e+00
1.452000e+00 0.000000e+00 0.000000e+00
1.633500e+00 0.000000e+00 0.000000e+00
1.815000e+00 0.000000e+00 0.000000e+00
1.996500e+00 0.000000e+00 0.000000e+00
2.178000e+00 0.000000e+00 0.000000e+00
1.452000e+00 1.282500e-01 0.000000e+00
1.633500e+00 1.282500e-01 0.000000e+00
1.815000e+00 1.282500e-01 0.000000e+00
1.996500e+00 1.282500e-01 0.000000e+00
2.178000e+00 1.282500e-01 0.000000e+00
1.452000e+00 2.565000e-01 0.000000e+00
1.633500e+00 2.565000e-01 0.000000e+00
1.815000e+00 2.565000e-01 0.000000e+00
1.996500e+00 2.565000e-01 0.000000e+00
2.178000e+00 2.565000e-01 0.000000e+00
1.452000e+00 3.847500e-01 0.000000e+00
1.633500e+00 3.847500e-01 0.000000e+00
1.815000e+00 3.847500e-01 0.000000e+00
1.996500e+00 3.847500e-01 0.000000e+00
2.178000e+00 3.847500e-01 0.000000e+00
1.452000e+00 5.130000e-01 0.000000e+00
1.633500e+00 5.130000e-01 0.000000e+00
1.815000e+00 5.130000e-01 0.000000e+00
1.996500e+00 5.130000e-01 0.000000e+00
2.178000e+00 5.130000e-01 0.000000e+00
2.178000e+00 0.000000e+00 0.000000e+00
2.359500e+00 0.000000e+00 0.000000e+00
2.541000e+00 0.000000e+00 0.000000e+00
2.722500e+00 0.000000e+00 0.000000e+00
2.904000e+00 0.000000e+00 0.000000e+00
2.178000e+00 1.282500e-01 0.000000e+00
2.359500e+00 1.282500e-01 0.000000e+00
2.541000e+00 1.282500e-01 0.000000e+00
2.722500e+00 1.282500e-01 0.000000e+00
2.904000e+00 1.282500e-01 0.000000e+00
2.178000e+00 2.565000e-01 0.000000e+00
2.359500e+00 2.565000e-01 0.000000e+00
2.541000e+00 2.565000e-01 0.000000e+00
2.722500e+00 2.565000e-01 0.000000e+00
2.904000e+00 2.565000e-01 0.000000e+00
2.178000e+00 3.847500e-01 0.000000e+00
2.359500e+00 3.847500e-01 0.000000e+00
2.541000e+00 3.847500e-01 0.000000e+00
2.722500e+00 3.847500e-01 0.000000e+00
2.904000e+00 3.847500e-01 0.000000e+00
2.178000e+00 5.130000e-01 0.000000e+00
2.359500e+00 5.130000e-01 0.000000e+00
2.541000e+00 5.130000e-01 0.000000e+00
2.722500e+00 5.130000e-01 0.000000e+00
2.904000e+00 5.130000e-01 0.000000e+00
2.904000e+00 0.000000e+00 0.000000e+00
3.085500e+00 0.000000e+00 0.000000e+00
3.267000e+00 0.000000e+00 0.000000e+00
3.448500e+00 0.000000e+00 0.000000e+00
3.630000e+00 0.000000e+00 0.000000e+00
2.904000e+00 1.282500e-01 0.000000e+00
3.085500e+00 1.282500e-01 0.000000e+00
3.267000e+00 1.282500e-01 0.000000e+00
3.448500e+00 1.282500e-01 0.000000e+00
3.630000e+00 1.282500e-01 0.000000e+00
2.904000e+00 2.565000e-01 0.000000e+00
3.085500e+00 2.565000e-01 0.000000e+00
3.267000e+00 2.565000e-01 0.000000e+00
3.448500e+00 2.565000e-01 0.000000e+00
3.630000e+00 2.565000e-01 0.000000e+00
2.904000e+00 3.847500e-01 0.000000e+00
3.085500e+00 3.847500e-01 0.000000e+00
3.267000e+00 3.847500e-01 0.000000e+00
3.448500e+00 3.847500e-01 0.000000e+00
3.630000e+00 3.847500e-01 0.000000e+00
2.904000e+00 5.130000e-01 0.000000e+00
[...]
<PointData>
<DataArray type="Float32" Name="V1" format="ascii">
0.000000e+00
0.000000e+00
0.000000e+00
0.000000e+00
0.000000e+00
1.264110e-02
1.103690e-02
9.659620e-03
8.509210e-03
7.585710e-03
2.028400e-02
1.823070e-02
1.640600e-02
1.480980e-02
1.344210e-02
2.292870e-02
2.158140e-02
2.023910e-02
1.890170e-02
1.756920e-02
2.057510e-02
2.108900e-02
2.115900e-02
2.078500e-02
1.996700e-02
0.000000e+00
0.000000e+00
0.000000e+00
0.000000e+00
0.000000e+00
7.585710e-03
6.551240e-03
5.774260e-03
5.254780e-03
4.992790e-03
1.344210e-02
1.190670e-02
1.071490e-02
9.866630e-03
9.361890e-03
1.756920e-02
1.606650e-02
1.482190e-02
1.383550e-02
1.310730e-02
1.996700e-02
1.903050e-02
1.809540e-02
1.716150e-02
1.622900e-02
0.000000e+00
0.000000e+00
0.000000e+00
0.000000e+00
0.000000e+00
4.992790e-03
4.781990e-03
4.628840e-03
4.533350e-03
4.495510e-03
9.361890e-03
8.958650e-03
8.633210e-03
8.385570e-03
8.215730e-03
1.310730e-02
1.253000e-02
1.201310e-02
1.155670e-02
1.116060e-02
1.622900e-02
1.549600e-02
1.476860e-02
1.404660e-02
1.333020e-02
0.000000e+00
0.000000e+00
0.000000e+00
0.000000e+00
0.000000e+00
4.495510e-03
3.695380e-03
3.864270e-03
5.002190e-03
7.109140e-03
8.215730e-03
6.578240e-03
6.649710e-03
8.430140e-03
1.191950e-02
1.116060e-02
8.648590e-03
8.356330e-03
1.028380e-02
1.443110e-02
1.333020e-02
9.906420e-03
8.984120e-03
1.056330e-02
1.464400e-02
0.000000e+00
0.000000e+00
0.000000e+00
0.000000e+00
0.000000e+00
7.109140e-03
5.783380e-03
2.142970e-03
-3.812120e-03
-1.208190e-02
1.191950e-02
8.377890e-03
1.544630e-03
-8.580280e-03
-2.199680e-02
1.443110e-02
7.783530e-03
-1.795020e-03
-1.430450e-02
-2.974490e-02
1.464400e-02
4.000290e-03
-7.875970e-03
-2.098480e-02
-3.532610e-02
0.000000e+00
0.000000e+00
0.000000e+00
0.000000e+00
0.000000e+00
-1.208190e-02
-1.316850e-02
-1.442750e-02
-1.585890e-02
-1.746270e-02
-2.199680e-02
-2.271790e-02
-2.402740e-02
-2.592540e-02
-2.841190e-02
-2.974490e-02
-2.864820e-02
-2.879980e-02
-3.019950e-02
-3.284750e-02
-3.532610e-02
-3.095950e-02
-2.874450e-02
-2.868120e-02
-3.076960e-02
0.000000e+00
0.000000e+00
0.000000e+00
0.000000e+00
0.000000e+00
-1.746270e-02
-1.685960e-02
-1.499040e-02
-1.185490e-02
-7.453320e-03
-2.841190e-02
-2.707580e-02
-2.383290e-02
-1.868340e-02
-1.162710e-02
-3.284750e-02
-3.064840e-02
-2.652760e-02
-2.048530e-02
-1.252140e-02
-3.076960e-02
-2.757750e-02
-2.307450e-02
-1.726070e-02
-1.013610e-02
0.000000e+00
0.000000e+00
0.000000e+00
0.000000e+00
0.000000e+00
-7.453320e-03
-4.782330e-03
-2.403310e-03
-3.162660e-04
1.478810e-03
-1.162710e-02
-7.241360e-03
-3.348530e-03
5.138000e-05
2.958370e-03
-1.252140e-02
-7.377090e-03
-2.835650e-03
1.102940e-03
4.438680e-03
-1.013610e-02
-5.189520e-03
-8.646810e-04
2.838410e-03
5.919740e-03
0.000000e+00
0.000000e+00
0.000000e+00
0.000000e+00
0.000000e+00
1.478810e-03
3.416050e-03
4.936990e-03
6.041650e-03
6.730030e-03
2.958370e-03
6.136360e-03
8.651410e-03
1.050350e-02
1.169280e-02
4.438680e-03
8.160930e-03
1.114330e-02
1.338570e-02
1.488820e-02
5.919740e-03
9.489770e-03
1.241250e-02
1.468810e-02
1.631630e-02
0.000000e+00
0.000000e+00
0.000000e+00
0.000000e+00
0.000000e+00
6.730030e-03
7.354150e-03
7.999960e-03
8.667460e-03
9.356640e-03
1.169280e-02
1.281850e-02
1.394020e-02
1.505790e-02
1.617170e-02
1.488820e-02
1.639290e-02
1.782070e-02
1.917140e-02
2.044520e-02
1.631630e-02
1.807760e-02
1.964140e-02
2.100790e-02
2.217700e-02
2.057510e-02
2.108900e-02
2.115900e-02
2.078500e-02
1.996700e-02
2.078850e-02
2.097620e-02
2.099880e-02
2.085620e-02
2.054840e-02
2.103660e-02
2.096390e-02
2.091190e-02
2.088050e-02
2.086980e-02
2.131930e-02
2.105210e-02
2.089840e-02
2.085800e-02
2.093110e-02
2.163650e-02
2.124080e-02
2.095820e-02
2.078870e-02
2.073240e-02
1.996700e-02
1.903050e-02
1.809540e-02
1.716150e-02
1.622900e-02
2.054840e-02
2.009240e-02
1.954160e-02
1.889610e-02
1.815580e-02
2.086980e-02
2.074840e-02
2.048660e-02
2.008440e-02
1.954190e-02
2.093110e-02
2.099840e-02
2.093020e-02
2.072650e-02
2.038720e-02
2.073240e-02
2.084250e-02
2.087250e-02
2.082220e-02
2.069170e-02
1.622900e-02
1.549600e-02
1.476860e-02
1.404660e-02
1.333020e-02
1.815580e-02
1.738580e-02
1.656660e-02
1.569810e-02
1.478030e-02
1.954190e-02
1.873580e-02
1.787790e-02
1.696820e-02
1.600670e-02
2.038720e-02
1.954590e-02
1.870250e-02
1.785710e-02
1.700960e-02
2.069170e-02
1.981610e-02
1.904050e-02
1.836470e-02
1.778880e-02
1.333020e-02
9.906420e-03
8.984120e-03
1.056330e-02
1.464400e-02
1.478030e-02
1.080270e-02
9.412550e-03
1.060980e-02
1.439450e-02
1.600670e-02
1.158810e-02
9.845160e-03
1.077800e-02
1.438650e-02
1.700960e-02
1.226250e-02
1.028200e-02
1.106780e-02
1.462010e-02
1.778880e-02
1.282610e-02
1.072290e-02
1.147940e-02
1.509540e-02
1.464400e-02
4.000290e-03
-7.875970e-03
-2.098480e-02
-3.532610e-02
1.439450e-02
1.293610e-03
-1.138140e-02
-2.363070e-02
-3.545410e-02
1.438650e-02
1.340890e-04
-1.260640e-02
-2.383500e-02
-3.355160e-02
1.462010e-02
5.217220e-04
-1.155090e-02
-2.159760e-02
-2.961850e-02
1.509540e-02
2.456510e-03
-8.214810e-03
-1.691860e-02
-2.365490e-02
-3.532610e-02
-3.095950e-02
-2.874450e-02
-2.868120e-02
-3.076960e-02
-3.545410e-02
-2.936800e-02
-2.588400e-02
-2.500220e-02
-2.672250e-02
-3.355160e-02
-2.636460e-02
-2.191300e-02
-2.019690e-02
-2.121620e-02
-2.961850e-02
-2.194910e-02
-1.683130e-02
-1.426510e-02
-1.425060e-02
-2.365490e-02
-1.612160e-02
-1.063890e-02
-7.207000e-03
-5.825730e-03
-3.076960e-02
-2.757750e-02
-2.307450e-02
-1.726070e-02
-1.013610e-02
-2.672250e-02
-2.539730e-02
-2.197330e-02
-1.645050e-02
-8.828870e-03
-2.121620e-02
-2.135770e-02
-1.895600e-02
-1.401100e-02
-6.522780e-03
-1.425060e-02
-1.545860e-02
-1.402240e-02
-9.942180e-03
-3.217830e-03
-5.825730e-03
-7.699930e-03
-7.172720e-03
-4.244090e-03
1.085960e-03
-1.013610e-02
-5.189520e-03
-8.646810e-04
2.838410e-03
5.919740e-03
-8.828870e-03
-3.761200e-03
5.858230e-04
4.212190e-03
7.117900e-03
-6.522780e-03
-1.520370e-03
2.679020e-03
6.075400e-03
8.668770e-03
-3.217830e-03
1.532960e-03
5.414910e-03
8.428050e-03
1.057230e-02
1.085960e-03
5.398780e-03
8.793500e-03
1.127010e-02
1.282860e-02
5.919740e-03
9.489770e-03
1.241250e-02
1.468810e-02
1.631630e-02
7.117900e-03
1.063930e-02
1.348290e-02
1.564860e-02
1.713640e-02
8.668770e-03
1.195550e-02
1.457680e-02
1.653250e-02
1.782280e-02
1.057230e-02
1.343840e-02
1.569420e-02
1.734000e-02
1.837550e-02
1.282860e-02
1.508790e-02
1.683530e-02
1.807080e-02
1.879450e-02
1.631630e-02
1.807760e-02
1.964140e-02
2.100790e-02
2.217700e-02
1.713640e-02
1.894800e-02
2.054390e-02
2.192420e-02
2.308880e-02
1.782280e-02
1.964040e-02
2.122020e-02
2.256220e-02
2.366660e-02
1.837550e-02
2.015470e-02
2.167020e-02
2.292210e-02
2.391030e-02
1.879450e-02
2.049100e-02
2.189410e-02
2.300370e-02
2.382000e-02
2.163650e-02
2.124080e-02
2.095820e-02
2.078870e-02
2.073240e-02
2.197900e-02
2.159460e-02
2.130630e-02
2.111410e-02
2.101800e-02
2.233590e-02
2.198800e-02
2.171500e-02
2.151670e-02
2.139320e-02
2.270730e-02
2.242120e-02
2.218430e-02
2.199650e-02
2.185790e-02
2.309330e-02
2.289410e-02
2.271420e-02
2.255360e-02
2.241220e-02
2.073240e-02
2.084250e-02
2.087250e-02
2.082220e-02
2.069170e-02
2.101800e-02
2.099420e-02
2.097480e-02
2.095970e-02
2.094890e-02
2.139320e-02
2.125360e-02
2.118360e-02
2.118310e-02
2.125210e-02
2.185790e-02
2.162070e-02
2.149890e-02
2.149240e-02
2.160130e-02
2.241220e-02
2.209550e-02
2.192060e-02
2.188760e-02
2.199640e-02
2.069170e-02
1.981610e-02
1.904050e-02
1.836470e-02
1.778880e-02
2.094890e-02
1.990920e-02
1.919160e-02
1.879620e-02
1.872280e-02
2.125210e-02
2.008230e-02
1.942130e-02
1.926910e-02
1.962580e-02
2.160130e-02
2.033520e-02
1.972940e-02
1.978370e-02
2.049810e-02
2.199640e-02
2.066820e-02
2.011590e-02
2.033970e-02
2.133950e-02
1.778880e-02
1.282610e-02
1.072290e-02
1.147940e-02
1.509540e-02
1.872280e-02
1.387320e-02
1.184090e-02
1.262570e-02
1.622770e-02
1.962580e-02
1.512550e-02
1.328910e-02
1.411680e-02
1.760850e-02
2.049810e-02
1.658270e-02
1.506760e-02
1.595260e-02
1.923780e-02
2.133950e-02
1.824510e-02
1.717630e-02
1.813320e-02
2.111570e-02
1.509540e-02
2.456510e-03
-8.214810e-03
-1.691860e-02
-2.365490e-02
1.622770e-02
7.528720e-03
-5.519500e-04
-8.014330e-03
-1.485840e-02
1.760850e-02
1.298460e-02
7.583990e-03
1.406690e-03
-5.547310e-03
1.923780e-02
1.882420e-02
1.619300e-02
1.134440e-02
4.278430e-03
2.111570e-02
2.504740e-02
2.527510e-02
2.179890e-02
1.461880e-02
-2.365490e-02
-1.612160e-02
-1.063890e-02
-7.207000e-03
-5.825730e-03
-1.485840e-02
-9.477330e-03
-5.021110e-03
-1.489760e-03
1.116740e-03
-5.547310e-03
-1.993720e-03
1.724720e-03
5.608010e-03
9.656150e-03
4.278430e-03
6.329270e-03
9.598570e-03
1.408630e-02
1.979250e-02
1.461880e-02
1.549160e-02
1.860040e-02
2.394520e-02
3.152590e-02
-5.825730e-03
-7.699930e-03
-7.172720e-03
-4.244090e-03
1.085960e-03
1.116740e-03
-4.697920e-04
-3.124560e-04
1.588740e-03
5.233800e-03
9.656150e-03
8.160740e-03
7.663390e-03
8.164100e-03
9.662870e-03
1.979250e-02
1.819170e-02
1.675480e-02
1.548200e-02
1.437320e-02
3.152590e-02
2.962300e-02
2.696180e-02
2.354240e-02
1.936470e-02
1.085960e-03
5.398780e-03
8.793500e-03
1.127010e-02
1.282860e-02
5.233800e-03
9.330520e-03
1.240280e-02
1.445080e-02
1.547430e-02
9.662870e-03
1.328880e-02
1.589080e-02
1.746900e-02
1.802330e-02
1.437320e-02
1.727360e-02
1.925740e-02
2.032480e-02
2.047560e-02
1.936470e-02
2.128480e-02
2.250270e-02
2.301820e-02
2.283130e-02
1.282860e-02
1.508790e-02
1.683530e-02
1.807080e-02
1.879450e-02
1.547430e-02
1.686680e-02
1.796330e-02
1.876370e-02
1.926810e-02
1.802330e-02
1.861690e-02
1.911150e-02
1.950690e-02
1.980320e-02
2.047560e-02
2.033830e-02
2.027980e-02
2.030040e-02
2.039990e-02
2.283130e-02
2.203070e-02
2.146840e-02
2.114420e-02
2.105820e-02
1.879450e-02
2.049100e-02
2.189410e-02
2.300370e-02
2.382000e-02
1.926810e-02
2.103340e-02
2.239140e-02
2.334190e-02
2.388510e-02
1.980320e-02
2.159810e-02
2.288750e-02
2.367140e-02
2.394970e-02
2.039990e-02
2.218510e-02
2.338250e-02
2.399200e-02
2.401380e-02
2.105820e-02
2.279440e-02
2.387630e-02
2.430400e-02
2.407730e-02
2.309330e-02
2.289410e-02
2.271420e-02
2.255360e-02
2.241220e-02
2.348320e-02
2.331970e-02
2.317440e-02
2.304740e-02
2.293880e-02
2.386930e-02
2.373340e-02
2.361740e-02
2.352160e-02
2.344580e-02
2.425160e-02
2.413520e-02
2.404330e-02
2.397600e-02
2.393330e-02
2.463000e-02
2.452520e-02
2.445210e-02
2.441070e-02
2.440120e-02
2.241220e-02
2.209550e-02
2.192060e-02
2.188760e-02
2.199640e-02
2.293880e-02
2.261130e-02
2.242250e-02
2.237240e-02
2.246080e-02
2.344580e-02
2.312090e-02
2.293040e-02
2.287410e-02
2.295210e-02
2.393330e-02
2.362430e-02
2.344410e-02
2.339280e-02
2.347030e-02
2.440120e-02
2.412130e-02
2.396370e-02
2.392840e-02
2.401540e-02
2.199640e-02
2.066820e-02
2.011590e-02
2.033970e-02
2.133950e-02
2.246080e-02
2.129060e-02
2.080600e-02
2.100700e-02
2.189370e-02
2.295210e-02
2.197100e-02
2.157040e-02
2.175020e-02
2.251050e-02
2.347030e-02
2.270950e-02
2.240910e-02
2.256930e-02
2.318990e-02
2.401540e-02
2.350600e-02
2.332230e-02
2.346420e-02
2.393190e-02
2.133950e-02
1.824510e-02
1.717630e-02
1.813320e-02
2.111570e-02
2.189370e-02
1.978860e-02
1.916980e-02
2.003730e-02
2.239090e-02
2.251050e-02
2.120490e-02
2.094540e-02
2.173190e-02
2.356440e-02
2.318990e-02
2.249390e-02
2.250300e-02
2.321700e-02
2.463610e-02
2.393190e-02
2.365560e-02
2.384260e-02
2.449270e-02
2.560600e-02
2.111570e-02
2.504740e-02
2.527510e-02
2.179890e-02
1.461880e-02
2.239090e-02
2.925940e-02
3.253460e-02
3.221640e-02
2.830500e-02
2.356440e-02
3.188770e-02
3.717660e-02
3.943100e-02
3.865100e-02
2.463610e-02
3.293240e-02
3.920120e-02
4.344270e-02
4.565680e-02
2.560600e-02
3.239330e-02
3.860840e-02
4.425150e-02
4.932260e-02
1.461880e-02
1.549160e-02
1.860040e-02
2.394520e-02
3.152590e-02
2.830500e-02
2.922700e-02
3.205000e-02
3.677390e-02
4.339870e-02
3.865100e-02
4.008060e-02
4.279660e-02
4.679910e-02
5.208800e-02
4.565680e-02
4.805230e-02
5.084030e-02
5.402080e-02
5.759380e-02
4.932260e-02
5.314230e-02
5.618110e-02
5.843900e-02
5.991590e-02
3.152590e-02
2.962300e-02
2.696180e-02
2.354240e-02
1.936470e-02
4.339870e-02
3.914710e-02
3.439610e-02
2.914590e-02
2.339650e-02
5.208800e-02
4.599670e-02
3.977200e-02
3.341400e-02
2.692270e-02
5.759380e-02
5.017190e-02
4.308960e-02
3.634680e-02
2.994350e-02
5.991590e-02
5.167270e-02
4.434870e-02
3.794410e-02
3.245870e-02
1.936470e-02
2.128480e-02
2.250270e-02
2.301820e-02
2.283130e-02
2.339650e-02
2.462690e-02
2.527740e-02
2.534790e-02
2.483840e-02
2.692270e-02
2.757440e-02
2.772870e-02
2.738570e-02
2.654530e-02
2.994350e-02
3.012730e-02
2.985670e-02
2.913170e-02
2.795210e-02
3.245870e-02
3.228570e-02
3.166140e-02
3.058570e-02
2.905880e-02
2.283130e-02
2.203070e-02
2.146840e-02
2.114420e-02
2.105820e-02
2.483840e-02
2.359750e-02
2.269810e-02
2.214020e-02
2.192380e-02
2.654530e-02
2.497190e-02
2.382040e-02
2.309080e-02
2.278310e-02
2.795210e-02
2.615420e-02
2.483550e-02
2.399620e-02
2.363630e-02
2.905880e-02
2.714420e-02
2.574340e-02
2.485630e-02
2.448320e-02
2.105820e-02
2.279440e-02
2.387630e-02
2.430400e-02
2.407730e-02
2.192380e-02
2.338200e-02
2.426290e-02
2.456650e-02
2.429280e-02
2.278310e-02
2.395760e-02
2.463690e-02
2.482110e-02
2.451020e-02
2.363630e-02
2.452120e-02
2.499840e-02
2.506780e-02
2.472950e-02
2.448320e-02
2.507290e-02
2.534740e-02
2.530670e-02
2.495070e-02
2.463000e-02
2.452520e-02
2.445210e-02
2.441070e-02
2.440120e-02
2.499690e-02
2.491550e-02
2.486470e-02
2.484430e-02
2.485440e-02
2.534870e-02
2.529400e-02
2.526680e-02
2.526730e-02
2.529540e-02
2.568540e-02
2.566040e-02
2.565860e-02
2.567980e-02
2.572400e-02
2.600690e-02
2.601500e-02
2.603990e-02
2.608170e-02
2.614040e-02
2.440120e-02
2.412130e-02
2.396370e-02
2.392840e-02
2.401540e-02
2.485440e-02
2.461690e-02
2.448940e-02
2.447190e-02
2.456430e-02
2.529540e-02
2.510170e-02
2.500540e-02
2.500650e-02
2.510490e-02
2.572400e-02
2.557560e-02
2.551170e-02
2.553220e-02
2.563730e-02
2.614040e-02
2.603860e-02
2.600830e-02
2.604920e-02
2.616150e-02
2.401540e-02
2.350600e-02
2.332230e-02
2.346420e-02
2.393190e-02
2.456430e-02
2.422420e-02
2.415080e-02
2.434410e-02
2.480410e-02
2.510490e-02
2.490220e-02
2.491970e-02
2.515750e-02
2.561540e-02
2.563730e-02
2.554000e-02
2.562900e-02
2.590440e-02
2.636600e-02
2.616150e-02
2.613760e-02
2.627870e-02
2.658480e-02
2.705580e-02
2.393190e-02
2.365560e-02
2.384260e-02
2.449270e-02
2.560600e-02
2.480410e-02
2.480810e-02
2.516910e-02
2.588720e-02
2.696230e-02
2.561540e-02
2.588720e-02
2.641750e-02
2.720620e-02
2.825340e-02
2.636600e-02
2.689300e-02
2.758760e-02
2.844980e-02
2.947950e-02
2.705580e-02
2.782560e-02
2.867960e-02
2.961780e-02
3.064040e-02
2.560600e-02
3.239330e-02
3.860840e-02
4.425150e-02
4.932260e-02
2.696230e-02
3.241970e-02
3.771600e-02
4.285140e-02
4.782570e-02
2.825340e-02
3.261210e-02
3.705590e-02
4.158470e-02
4.619870e-02
2.947950e-02
3.297060e-02
3.662800e-02
4.045160e-02
4.444140e-02
3.064040e-02
3.349510e-02
3.643230e-02
3.945190e-02
4.255390e-02
4.932260e-02
5.314230e-02
5.618110e-02
5.843900e-02
5.991590e-02
4.782570e-02
5.207430e-02
5.519550e-02
5.718910e-02
5.805540e-02
4.619870e-02
5.044100e-02
5.342590e-02
5.515330e-02
5.562310e-02
4.444140e-02
4.824250e-02
5.087250e-02
5.233140e-02
5.261920e-02
4.255390e-02
4.547870e-02
4.753530e-02
4.872360e-02
4.904360e-02
5.991590e-02
5.167270e-02
4.434870e-02
3.794410e-02
3.245870e-02
5.805540e-02
5.112670e-02
4.493580e-02
3.948260e-02
3.476720e-02
5.562310e-02
5.007420e-02
4.503900e-02
4.051770e-02
3.651010e-02
5.261920e-02
4.851510e-02
4.465840e-02
4.104920e-02
3.768740e-02
4.904360e-02
4.644950e-02
4.379400e-02
4.107720e-02
3.829910e-02
3.245870e-02
3.228570e-02
3.166140e-02
3.058570e-02
2.905880e-02
3.476720e-02
3.380040e-02
3.261980e-02
3.122560e-02
2.961780e-02
3.651010e-02
3.490910e-02
3.330100e-02
3.168600e-02
3.006400e-02
3.768740e-02
3.561180e-02
3.370500e-02
3.196680e-02
3.039740e-02
3.829910e-02
3.590860e-02
3.383170e-02
3.206820e-02
3.061810e-02
2.905880e-02
2.714420e-02
2.574340e-02
2.485630e-02
2.448320e-02
2.961780e-02
2.796120e-02
2.670430e-02
2.584710e-02
2.538940e-02
3.006400e-02
2.865520e-02
2.754020e-02
2.671880e-02
2.619110e-02
3.039740e-02
2.922610e-02
2.825090e-02
2.747160e-02
2.688830e-02
3.061810e-02
2.967400e-02
2.883640e-02
2.810540e-02
2.748090e-02
2.448320e-02
2.507290e-02
2.534740e-02
2.530670e-02
2.495070e-02
2.538940e-02
2.559650e-02
2.563650e-02
2.550930e-02
2.521490e-02
2.619110e-02
2.606390e-02
2.590230e-02
2.570640e-02
2.547610e-02
2.688830e-02
2.647490e-02
2.614480e-02
2.589800e-02
2.573440e-02
2.748090e-02
2.682960e-02
2.636400e-02
2.608410e-02
2.598990e-02
2.600690e-02
2.601500e-02
2.603990e-02
2.608170e-02
2.614040e-02
2.630990e-02
2.634880e-02
2.640040e-02
2.646460e-02
2.654160e-02
2.659390e-02
2.666190e-02
2.673850e-02
2.682380e-02
2.691770e-02
2.685910e-02
2.695440e-02
2.705440e-02
2.715920e-02
2.726870e-02
2.710540e-02
2.722620e-02
2.734800e-02
2.747080e-02
2.759460e-02
2.614040e-02
2.603860e-02
2.600830e-02
2.604920e-02
2.616150e-02
2.654160e-02
2.647390e-02
2.647150e-02
2.653460e-02
2.666310e-02
2.691770e-02
2.688090e-02
2.690330e-02
2.698520e-02
2.712640e-02
2.726870e-02
2.725960e-02
2.730370e-02
2.740090e-02
2.755140e-02
2.759460e-02
2.761010e-02
2.767260e-02
2.778190e-02
2.793820e-02
2.616150e-02
2.613760e-02
2.627870e-02
2.658480e-02
2.705580e-02
2.666310e-02
2.670120e-02
2.688300e-02
2.720870e-02
2.767810e-02
2.712640e-02
2.722130e-02
2.743830e-02
2.777740e-02
2.823870e-02
2.755140e-02
2.769790e-02
2.794450e-02
2.829110e-02
2.873760e-02
2.793820e-02
2.813120e-02
2.840170e-02
2.874960e-02
2.917500e-02
2.705580e-02
2.782560e-02
2.867960e-02
2.961780e-02
3.064040e-02
2.767810e-02
2.850330e-02
2.941640e-02
3.041760e-02
3.150680e-02
2.823870e-02
2.906900e-02
2.999140e-02
3.100600e-02
3.211270e-02
2.873760e-02
2.952260e-02
3.040440e-02
3.138290e-02
3.245820e-02
2.917500e-02
2.986430e-02
3.065540e-02
3.154830e-02
3.254310e-02
3.064040e-02
3.349510e-02
3.643230e-02
3.945190e-02
4.255390e-02
3.150680e-02
3.395460e-02
3.644270e-02
3.897090e-02
4.153940e-02
3.211270e-02
3.420970e-02
3.630910e-02
3.841090e-02
4.051520e-02
3.245820e-02
3.426020e-02
3.603150e-02
3.777180e-02
3.948140e-02
3.254310e-02
3.410640e-02
3.560990e-02
3.705370e-02
3.843780e-02
4.255390e-02
4.547870e-02
4.753530e-02
4.872360e-02
4.904360e-02
4.153940e-02
4.388080e-02
4.550640e-02
4.641600e-02
4.660970e-02
4.051520e-02
4.237760e-02
4.365770e-02
4.435540e-02
4.447080e-02
3.948140e-02
4.096910e-02
4.198930e-02
4.254190e-02
4.262680e-02
3.843780e-02
3.965530e-02
4.050110e-02
4.097530e-02
4.107780e-02
4.904360e-02
4.644950e-02
4.379400e-02
4.107720e-02
3.829910e-02
4.660970e-02
4.454240e-02
4.241450e-02
4.022610e-02
3.797710e-02
4.447080e-02
4.285540e-02
4.117200e-02
3.942060e-02
3.760110e-02
4.262680e-02
4.138840e-02
4.006630e-02
3.866060e-02
3.717110e-02
4.107780e-02
4.014150e-02
3.909760e-02
3.794610e-02
3.668710e-02
3.829910e-02
3.590860e-02
3.383170e-02
3.206820e-02
3.061810e-02
3.797710e-02
3.586560e-02
3.399850e-02
3.237580e-02
3.099750e-02
3.760110e-02
3.574800e-02
3.408110e-02
3.260040e-02
3.130580e-02
3.717110e-02
3.555590e-02
3.407940e-02
3.274180e-02
3.154310e-02
3.668710e-02
3.528910e-02
3.399350e-02
3.280020e-02
3.170920e-02
3.061810e-02
2.967400e-02
2.883640e-02
2.810540e-02
2.748090e-02
3.099750e-02
3.005900e-02
2.922070e-02
2.848280e-02
2.784500e-02
3.130580e-02
3.037200e-02
2.953420e-02
2.879260e-02
2.814700e-02
3.154310e-02
3.061300e-02
2.977690e-02
2.903480e-02
2.838660e-02
3.170920e-02
3.078200e-02
2.994880e-02
2.920940e-02
2.856400e-02
2.748090e-02
2.682960e-02
2.636400e-02
2.608410e-02
2.598990e-02
2.784500e-02
2.719340e-02
2.669930e-02
2.636260e-02
2.618340e-02
2.814700e-02
2.751040e-02
2.700080e-02
2.661800e-02
2.636200e-02
2.838660e-02
2.778060e-02
2.726850e-02
2.685030e-02
2.652580e-02
2.856400e-02
2.800410e-02
2.750250e-02
2.705950e-02
2.667480e-02
2.710540e-02
2.722620e-02
2.734800e-02
2.747080e-02
2.759460e-02
2.733260e-02
2.746910e-02
2.760580e-02
2.774280e-02
2.788000e-02
2.754220e-02
2.769200e-02
2.784110e-02
2.798950e-02
2.813730e-02
2.773410e-02
2.789490e-02
2.805380e-02
2.821100e-02
2.836640e-02
2.790840e-02