<?xml version="1.0"?>
<VTKFile type="UnstructuredGrid" version="0.1" byte_order="LittleEndian" compressor="vtkZLibDataCompressor">
<UnstructuredGrid>
<Piece NumberOfPoints="2500" NumberOfCells="1600">
<Points>
<DataArray type="Float32" NumberOfComponents="3" format="ascii">
-3.630000e+00 0.000000e+00 0.000000e+00
-3.448500e+00 0.000000e+00 0.000000e+00
-3.267000e+00 0.000000e+00 0.000000e+00
-3.085500e+00 0.000000e+00 0.000000e+00
-2.904000e+00 0.000000e+00 0.000000e+00
-3.630000e+00 1.282500e-01 0.000000e+00
-3.448500e+00 1.282500e-01 0.000000e+00
-3.267000e+00 1.282500e-01 0.000000e+00
-3.085500e+00 1.282500e-01 0.000000e+00
-2.904000e+00 1.282500e-01 0.000000e+00
-3.630000e+00 2.565000e-01 0.000000e+00
-3.448500e+00 2.565000e-01 0.000000e+00
-3.267000e+00 2.565000e-01 0.000000e+00
-3.085500e+00 2.565000e-01 0.000000e+00
-2.904000e+00 2.565000e-01 0.000000e+00
-3.630000e+00 3.847500e-01 0.000000e+00
-3.448500e+00 3.847500e-01 0.000000e+00
-3.267000e+00 3.847500e-01 0.000000e+00
-3.085500e+00 3.847500e-01 0.000000e+00
-2.904000e+00 3.847500e-01 0.000000e+00
-3.630000e+00 5.130000e-01 0.000000e+00
-3.448500e+00 5.130000e-01 0.000000e+00
-3.267000e+00 5.130000e-01 0.000000e+00
-3.085500e+00 5.130000e-01 0.000000e+00
-2.904000e+00 5.130000e-01 0.000000e+00
-2.904000e+00 0.000000e+00 0.000000e+00
-2.722500e+00 0.000000e+00 0.000000e+00
-2.541000e+00 0.000000e+00 0.000000e+00
-2.359500e+00 0.000000e+00 0.000000e+00
-2.178000e+00 0.000000e+00 0.000000e+00
-2.904000e+00 1.282500e-01 0.000000e+00
-2.722500e+00 1.282500e-01 0.000000e+00
-2.541000e+00 1.282500e-01 0.000000e+00
-2.359500e+00 1.282500e-01 0.000000e+00
-2.178000e+00 1.282500e-01 0.000000e+00
-2.904000e+00 2.565000e-01 0.000000e+00
-2.722500e+00 2.565000e-01 0.000000e+00
-2.541000e+00 2.565000e-01 0.000000e+00
-2.359500e+00 2.565000e-01 0.000000e+00
-2.178000e+00 2.565000e-01 0.000000e+00
-2.904000e+00 3.847500e-01 0.000000e+00
-2.722500e+00 3.847500e-01 0.000000e+00
-2.541000e+00 3.847500e-01 0.000000e+00
-2.359500e+00 3.847500e-01 0.000000e+00
-2.178000e+00 3.847500e-01 0.000000e+00
-2.904000e+00 5.130000e-01 0.000000e+00
-2.722500e+00 5.130000e-01 0.000000e+00
-2.541000e+00 5.130000e-01 0.000000e+00
-2.359500e+00 5.130000e-01 0.000000e+00
-2.178000e+00 5.130000e-01 0.000000e+00
-2.178000e+00 0.000000e+00 0.000000e+00
-1.996500e+00 0.000000e+00 0.000000e+00
-1.815000e+00 0.000000e+00 0.000000e+00
-1.633500e+00 0.000000e+00 0.000000e+00
-1.452000e+00 0.000000e+00 0.000000e+00
-2.178000e+00 1.282500e-01 0.000000e+00
-1.996500e+00 1.282500e-01 0.000000e+00
-1.815000e+00 1.282500e-01 0.000000e+00
-1.633500e+00 1.282500e-01 0.000000e+00
-1.452000e+00 1.282500e-01 0.000000e+00
-2.178000e+00 2.565000e-01 0.000000e+00
-1.996500e+00 2.565000e-01 0.000000e+00
-1.815000e+00 2.565000e-01 0.000000e+00
-1.633500e+00 2.565000e-01 0.000000e+00
-1.452000e+00 2.565000e-01 0.000000e+00
-2.178000e+00 3.847500e-01 0.000000e+00
-1.996500e+00 3.847500e-01 0.000000e+00
-1.815000e+00 3.847500e-01 0.000000e+00
-1.633500e+00 3.847500e-01 0.000000e+00
-1.452000e+00 3.847500e-01 0.000000e+00
-2.178000e+00 5.130000e-01 0.000000e+00
-1.996500e+00 5.130000e-01 0.000000e+00
-1.815000e+00 5.130000e-01 0.000000e+00
-1.633500e+00 5.130000e-01 0.000000e+00
-1.452000e+00 5.130000e-01 0.000000e+00
-1.452000e+00 0.000000e+00 0.000000e+00
-1.270500e+00 0.000000e+00 0.000000e+00
-1.089000e+00 0.000000e+00 0.000000e+00
-9.075000e-01 0.000000e+00 0.000000e+00
-7.260000e-01 0.000000e+00 0.000000e+00
-1.452000e+00 1.282500e-01 0.000000e+00
-1.270500e+00 1.282500e-01 0.000000e+00
-1.089000e+00 1.282500e-01 0.000000e+00
-9.075000e-01 1.282500e-01 0.000000e+00
-7.260000e-01 1.282500e-01 0.000000e+00
-1.452000e+00 2.565000e-01 0.000000e+00
-1.270500e+00 2.565000e-01 0.000000e+00
-1.089000e+00 2.565000e-01 0.000000e+00
-9.075000e-01 2.565000e-01 0.000000e+00
-7.260000e-01 2.565000e-01 0.000000e+00
-1.452000e+00 3.847500e-01 0.000000e+00
-1.270500e+00 3.847500e-01 0.000000e+00
-1.089000e+00 3.847500e-01 0.000000e+00
-9.075000e-01 3.847500e-01 0.000000e+00
-7.260000e-01 3.847500e-01 0.000000e+00
-1.452000e+00 5.130000e-01 0.000000e+00
-1.270500e+00 5.130000e-01 0.000000e+00
-1.089000e+00 5.130000e-01 0.000000e+00
-9.075000e-01 5.130000e-01 0.000000e+00
-7.260000e-01 5.130000e-01 0.000000e+00
-7.260000e-01 0.000000e+00 0.000000e+00
-5.445000e-01 0.000000e+00 0.000000e+00
-3.630000e-01 0.000000e+00 0.000000e+00
-1.815000e-01 0.000000e+00 0.000000e+00
0.000000e+00 0.000000e+00 0.000000e+00
-7.260000e-01 1.282500e-01 0.000000e+00
-5.445000e-01 1.282500e-01 0.000000e+00
-3.630000e-01 1.282500e-01 0.000000e+00
-1.815000e-01 1.282500e-01 0.000000e+00
0.000000e+00 1.282500e-01 0.000000e+00
-7.260000e-01 2.565000e-01 0.000000e+00
-5.445000e-01 2.565000e-01 0.000000e+00
-3.630000e-01 2.565000e-01 0.000000e+00
-1.815000e-01 2.565000e-01 0.000000e+00
0.000000e+00 2.565000e-01 0.000000e+00
-7.260000e-01 3.847500e-01 0.000000e+00
-5.445000e-01 3.847500e-01 0.000000e+00
-3.630000e-01 3.847500e-01 0.000000e+00
-1.815000e-01 3.847500e-01 0.000000e+00
0.000000e+00 3.847500e-01 0.000000e+00
-7.260000e-01 5.130000e-01 0.000000e+00
-5.445000e-01 5.130000e-01 0.000000e+00
-3.630000e-01 5.130000e-01 0.000000e+00
-1.815000e-01 5.130000e-01 0.000000e+00
0.000000e+00 5.130000e-01 0.000000e+00
0.000000e+00 0.000000e+00 0.000000e+00
1.815000e-01 0.000000e+00 0.000000e+00
3.630000e-01 0.000000e+00 0.000000e+00
5.445000e-01 0.000000e+00 0.000000e+00
7.260000e-01 0.000000e+00 0.000000e+00
0.000000e+00 1.282500e-01 0.000000e+00
1.815000e-01 1.282500e-01 0.000000e+00
3.630000e-01 1.282500e-01 0.000000e+00
5.445000e-01 1.282500e-01 0.000000e+00
7.260000e-01 1.282500e-01 0.000000e+00
0.000000e+00 2.565000e-01 0.000000e+00
1.815000e-01 2.565000e-01 0.000000e+00
3.630000e-01 2.565000e-01 0.000000e+00
5.445000e-01 2.565000e-01 0.000000e+00
7.260000e-01 2.565000e-01 0.000000e+00
0.000000e+00 3.847500e-01 0.000000e+00
1.815000e-01 3.847500e-01 0.000000e+00
3.630000e-01 3.847500e-01 0.000000e+00
5.445000e-01 3.847500e-01 0.000000e+00
7.260000e-01 3.847500e-01 0.000000e+00
0.000000e+00 5.130000e-01 0.000000e+00
1.815000e-01 5.130000e-01 0.000000e+00
3.630000e-01 5.130000e-01 0.000000e+00
5.445000e-01 5.130000e-01 0.000000e+00
7.260000e-01 5.130000e-01 0.000000e+00
7.260000e-01 0.000000e+00 0.000000e+00
9.075000e-01 0.000000e+00 0.000000e+00
1.089000e+00 0.000000e+00 0.000000e+00
1.270500e+00 0.000000e+00 0.000000e+00
1.452000e+00 0.000000e+00 0.000000e+00
7.260000e-01 1.282500e-01 0.000000e+00
9.075000e-01 1.282500e-01 0.000000e+00
1.089000e+00 1.282500e-01 0.000000e+00
1.270500e+00 1.282500e-01 0.000000e+00
1.452000e+00 1.282500e-01 0.000000e+00
7.260000e-01 2.565000e-01 0.000000e+00
9.075000e-01 2.565000e-01 0.000000e+00
1.089000e+00 2.565000e-01 0.000000e+00
1.270500e+00 2.565000e-01 0.000000e+00
1.452000e+00 2.565000e-01 0.000000e+00
7.260000e-01 3.847500e-01 0.000000e+00
9.075000e-01 3.847500e-01 0.000000e+00
1.089000e+00 3.847500e-01 0.000000e+00
1.270500e+00 3.847500e-01 0.000000e+00
1.452000e+00 3.847500e-01 0.000000e+00
7.260000e-01 5.130000e-01 0.000000e+00
9.075000e-01 5.130000e-01 0.000000e+00
1.089000e+00 5.130000e-01 0.000000e+00
1.270500e+00 5.130000e-01 0.000000e+00
1.452000e+00 5.130000e-01 0.000000e+00
1.452000e+00 0.000000e+00 0.000000e+00
1.633500e+00 0.000000e+00 0.000000e+00
1.815000e+00 0.000000e+00 0.000000e+00
1.996500e+00 0.000000e+00 0.000000e+00
2.178000e+00 0.000000e+00 0.000000e+00
1.452000e+00 1.282500e-01 0.000000e+00
1.633500e+00 1.282500e-01 0.000000e+00
1.815000e+00 1.282500e-01 0.000000e+00
1.996500e+00 1.282500e-01 0.000000e+00
2.178000e+00 1.282500e-01 0.000000e+00
1.452000e+00 2.565000e-01 0.000000e+00
1.633500e+00 2.565000e-01 0.000000e+00
1.815000e+00 2.565000e-01 0.000000e+00
1.996500e+00 2.565000e-01 0.000000e+00
2.178000e+00 2.565000e-01 0.000000e+00
1.452000e+00 3.847500e-01 0.000000e+00
1.633500e+00 3.847500e-01 0.000000e+00
1.815000e+00 3.847500e-01 0.000000e+00
1.996500e+00 3.847500e-01 0.000000e+00
2.178000e+00 3.847500e-01 0.000000e+00
1.452000e+00 5.130000e-01 0.000000e+00
1.633500e+00 5.130000e-01 0.000000e+00
1.815000e+00 5.130000e-01 0.000000e+00
1.996500e+00 5.130000e-01 0.000000e+00
2.178000e+00 5.130000e-01 0.000000e+00
2.178000e+00 0.000000e+00 0.000000e+00
2.359500e+00 0.000000e+00 0.000000e+00
2.541000e+00 0.000000e+00 0.000000e+00
2.722500e+00 0.000000e+00 0.000000e+00
2.904000e+00 0.000000e+00 0.000000e+00
2.178000e+00 1.282500e-01 0.000000e+00
2.359500e+00 1.282500e-01 0.000000e+00
2.541000e+00 1.282500e-01 0.000000e+00
2.722500e+00 1.282500e-01 0.000000e+00
2.904000e+00 1.282500e-01 0.000000e+00
2.178000e+00 2.565000e-01 0.000000e+00
2.359500e+00 2.565000e-01 0.000000e+00
2.541000e+00 2.565000e-01 0.000000e+00
2.722500e+00 2.565000e-01 0.000000e+00
2.904000e+00 2.565000e-01 0.000000e+00
2.178000e+00 3.847500e-01 0.000000e+00
2.359500e+00 3.847500e-01 0.000000e+00
2.541000e+00 3.847500e-01 0.000000e+00
2.722500e+00 3.847500e-01 0.000000e+00
2.904000e+00 3.847500e-01 0.000000e+00
2.178000e+00 5.130000e-01 0.000000e+00
2.359500e+00 5.130000e-01 0.000000e+00
2.541000e+00 5.130000e-01 0.000000e+00
2.722500e+00 5.130000e-01 0.000000e+00
2.904000e+00 5.130000e-01 0.000000e+00
2.904000e+00 0.000000e+00 0.000000e+00
3.085500e+00 0.000000e+00 0.000000e+00
3.267000e+00 0.000000e+00 0.000000e+00
3.448500e+00 0.000000e+00 0.000000e+00
3.630000e+00 0.000000e+00 0.000000e+00
2.904000e+00 1.282500e-01 0.000000e+00
3.085500e+00 1.282500e-01 0.000000e+00
3.267000e+00 1.282500e-01 0.000000e+00
3.448500e+00 1.282500e-01 0.000000e+00
3.630000e+00 1.282500e-01 0.000000e+00
2.904000e+00 2.565000e-01 0.000000e+00
3.085500e+00 2.565000e-01 0.000000e+00
3.267000e+00 2.565000e-01 0.000000e+00
3.448500e+00 2.565000e-01 0.000000e+00
3.630000e+00 2.565000e-01 0.000000e+00
2.904000e+00 3.847500e-01 0.000000e+00
3.085500e+00 3.847500e-01 0.000000e+00
3.267000e+00 3.847500e-01 0.000000e+00
3.448500e+00 3.847500e-01 0.000000e+00
3.630000e+00 3.847500e-01 0.000000e+00
2.904000e+00 5.130000e-01 0.000000e+00
[...]
<PointData>
<DataArray type="Float32" Name="V1" format="ascii">
0.000000e+00
0.000000e+00
0.000000e+00
0.000000e+00
0.000000e+00
1.264110e-02
1.104100e-02
9.673200e-03
8.537710e-03
7.634540e-03
2.028400e-02
1.823610e-02
1.642560e-02
1.485240e-02
1.351640e-02
2.292870e-02
2.158540e-02
2.025720e-02
1.894390e-02
1.764570e-02
2.057510e-02
2.108880e-02
2.116790e-02
2.081240e-02
2.002230e-02
0.000000e+00
0.000000e+00
0.000000e+00
0.000000e+00
0.000000e+00
7.634540e-03
6.623990e-03
5.877590e-03
5.395350e-03
5.177260e-03
1.351640e-02
1.201430e-02
1.086460e-02
1.006730e-02
9.622440e-03
1.764570e-02
1.617100e-02
1.496100e-02
1.401590e-02
1.333560e-02
2.002230e-02
1.909390e-02
1.816690e-02
1.724110e-02
1.631660e-02
0.000000e+00
0.000000e+00
0.000000e+00
0.000000e+00
0.000000e+00
5.177260e-03
5.038940e-03
4.922550e-03
4.828100e-03
4.755580e-03
9.622440e-03
9.333940e-03
9.057510e-03
8.793140e-03
8.540840e-03
1.333560e-02
1.288500e-02
1.240490e-02
1.189510e-02
1.135580e-02
1.631660e-02
1.569210e-02
1.496460e-02
1.413410e-02
1.320050e-02
0.000000e+00
0.000000e+00
0.000000e+00
0.000000e+00
0.000000e+00
4.755580e-03
3.635840e-03
3.709470e-03
4.976490e-03
7.436880e-03
8.540840e-03
6.385650e-03
6.269220e-03
8.191570e-03
1.215270e-02
1.135580e-02
8.249430e-03
7.679250e-03
9.645260e-03
1.414750e-02
1.320050e-02
9.227190e-03
7.939550e-03
9.337540e-03
1.342120e-02
0.000000e+00
0.000000e+00
0.000000e+00
0.000000e+00
0.000000e+00
7.436880e-03
5.132190e-03
2.750420e-04
-7.134570e-03
-1.709660e-02
1.215270e-02
6.674040e-03
-2.181030e-03
-1.441250e-02
-3.002040e-02
1.414750e-02
4.625550e-03
-7.368210e-03
-2.183380e-02
-3.877130e-02
1.342120e-02
-1.013290e-03
-1.528650e-02
-2.939850e-02
-4.334930e-02
0.000000e+00
0.000000e+00
0.000000e+00
0.000000e+00
0.000000e+00
-1.709660e-02
-1.734210e-02
-1.767620e-02
-1.809900e-02
-1.861050e-02
-3.002040e-02
-2.923190e-02
-2.892070e-02
-2.908690e-02
-2.973040e-02
-3.877130e-02
-3.566930e-02
-3.373330e-02
-3.296350e-02
-3.335970e-02
-4.334930e-02
-3.665430e-02
-3.211420e-02
-2.972890e-02
-2.949840e-02
0.000000e+00
0.000000e+00
0.000000e+00
0.000000e+00
0.000000e+00
-1.861050e-02
-1.734810e-02
-1.500240e-02
-1.157350e-02
-7.061360e-03
-2.973040e-02
-2.748350e-02
-2.359990e-02
-1.807960e-02
-1.092260e-02
-3.335970e-02
-3.040630e-02
-2.579240e-02
-1.951830e-02
-1.158390e-02
-2.949840e-02
-2.611630e-02
-2.158000e-02
-1.588960e-02
-9.045010e-03
0.000000e+00
0.000000e+00
0.000000e+00
0.000000e+00
0.000000e+00
-7.061360e-03
-3.936280e-03
-1.326510e-03
7.679730e-04
2.347150e-03
-1.092260e-02
-5.847450e-03
-1.603830e-03
1.808240e-03
4.388730e-03
-1.158390e-02
-5.733510e-03
-8.319620e-04
3.120790e-03
6.124740e-03
-9.045010e-03
-3.594460e-03
9.890860e-04
4.705630e-03
7.555170e-03
0.000000e+00
0.000000e+00
0.000000e+00
0.000000e+00
0.000000e+00
2.347150e-03
4.122610e-03
5.518190e-03
6.533890e-03
7.169720e-03
4.388730e-03
7.299920e-03
9.606440e-03
1.130830e-02
1.240550e-02
6.124740e-03
9.531930e-03
1.226470e-02
1.432320e-02
1.570730e-02
7.555170e-03
1.081860e-02
1.349310e-02
1.557860e-02
1.707510e-02
0.000000e+00
0.000000e+00
0.000000e+00
0.000000e+00
0.000000e+00
7.169720e-03
7.750140e-03
8.361690e-03
9.004370e-03
9.678190e-03
1.240550e-02
1.346710e-02
1.453570e-02
1.561120e-02
1.669370e-02
1.570730e-02
1.715100e-02
1.852210e-02
1.982060e-02
2.104650e-02
1.707510e-02
1.880180e-02
2.032090e-02
2.163250e-02
2.273660e-02
2.057510e-02
2.108880e-02
2.116790e-02
2.081240e-02
2.002230e-02
2.078850e-02
2.097470e-02
2.100380e-02
2.087590e-02
2.059100e-02
2.103660e-02
2.096090e-02
2.091340e-02
2.089410e-02
2.090290e-02
2.131930e-02
2.104750e-02
2.089670e-02
2.086690e-02
2.095810e-02
2.163650e-02
2.123440e-02
2.095370e-02
2.079440e-02
2.075650e-02
2.002230e-02
1.909390e-02
1.816690e-02
1.724110e-02
1.631660e-02
2.059100e-02
2.012060e-02
1.955310e-02
1.888850e-02
1.812680e-02
2.090290e-02
2.074650e-02
2.044980e-02
2.001270e-02
1.943530e-02
2.095810e-02
2.097170e-02
2.085690e-02
2.061370e-02
2.024210e-02
2.075650e-02
2.079620e-02
2.077460e-02
2.069150e-02
2.054710e-02
1.631660e-02
1.569210e-02
1.496460e-02
1.413410e-02
1.320050e-02
1.812680e-02
1.736700e-02
1.647970e-02
1.546490e-02
1.432260e-02
1.943530e-02
1.853270e-02
1.755240e-02
1.649450e-02
1.535910e-02
2.024210e-02
1.918910e-02
1.818280e-02
1.722310e-02
1.631000e-02
2.054710e-02
1.933630e-02
1.837080e-02
1.765040e-02
1.717530e-02
1.320050e-02
9.227190e-03
7.939550e-03
9.337540e-03
1.342120e-02
1.432260e-02
1.002350e-02
8.211490e-03
8.886510e-03
1.204860e-02
1.535910e-02
1.077370e-02
8.556440e-03
8.707280e-03
1.122620e-02
1.631000e-02
1.147780e-02
8.974390e-03
8.799860e-03
1.095420e-02
1.717530e-02
1.213570e-02
9.465360e-03
9.164230e-03
1.123230e-02
1.342120e-02
-1.013290e-03
-1.528650e-02
-2.939850e-02
-4.334930e-02
1.204860e-02
-4.682010e-03
-1.949480e-02
-3.238990e-02
-4.336720e-02
1.122620e-02
-6.084850e-03
-2.045320e-02
-3.187880e-02
-4.036170e-02
1.095420e-02
-5.221810e-03
-1.816160e-02
-2.786520e-02
-3.433270e-02
1.123230e-02
-2.092890e-03
-1.262010e-02
-2.034920e-02
-2.528020e-02
-4.334930e-02
-3.665430e-02
-3.211420e-02
-2.972890e-02
-2.949840e-02
-4.336720e-02
-3.567580e-02
-3.000180e-02
-2.634520e-02
-2.470600e-02
-4.036170e-02
-3.248010e-02
-2.622420e-02
-2.159390e-02
-1.858940e-02
-3.433270e-02
-2.706700e-02
-2.078120e-02
-1.547510e-02
-1.114870e-02
-2.528020e-02
-1.943680e-02
-1.367290e-02
-7.988550e-03
-2.383770e-03
-2.949840e-02
-2.611630e-02
-2.158000e-02
-1.588960e-02
-9.045010e-03
-2.470600e-02
-2.335400e-02
-2.007200e-02
-1.486010e-02
-7.718270e-03
-1.858940e-02
-1.870480e-02
-1.654950e-02
-1.212350e-02
-5.426840e-03
-1.114870e-02
-1.216890e-02
-1.101260e-02
-7.679900e-03
-2.170750e-03
-2.383770e-03
-3.746090e-03
-3.461230e-03
-1.529190e-03
2.050020e-03
-9.045010e-03
-3.594460e-03
9.890860e-04
4.705630e-03
7.555170e-03
-7.718270e-03
-1.950550e-03
2.738520e-03
6.348960e-03
8.880750e-03
-5.426840e-03
3.831480e-04
4.965390e-03
8.319880e-03
1.044660e-02
-2.170750e-03
3.406630e-03
7.669680e-03
1.061840e-02
1.225280e-02
2.050020e-03
7.119910e-03
1.085140e-02
1.324450e-02
1.429920e-02
7.555170e-03
1.081860e-02
1.349310e-02
1.557860e-02
1.707510e-02
8.880750e-03
1.195840e-02
1.447500e-02
1.643050e-02
1.782510e-02
1.044660e-02
1.319970e-02
1.545220e-02
1.720400e-02
1.845510e-02
1.225280e-02
1.454280e-02
1.642480e-02
1.789900e-02
1.896520e-02
1.429920e-02
1.598750e-02
1.739290e-02
1.851550e-02
1.935520e-02
1.707510e-02
1.880180e-02
2.032090e-02
2.163250e-02
2.273660e-02
1.782510e-02
1.962910e-02
2.119230e-02
2.251480e-02
2.359650e-02
1.845510e-02
2.028210e-02
2.183530e-02
2.311480e-02
2.412050e-02
1.896520e-02
2.076080e-02
2.225000e-02
2.343250e-02
2.430840e-02
1.935520e-02
2.106530e-02
2.243620e-02
2.346780e-02
2.416030e-02
2.163650e-02
2.123440e-02
2.095370e-02
2.079440e-02
2.075650e-02
2.197900e-02
2.159000e-02
2.130300e-02
2.111780e-02
2.103450e-02
2.233590e-02
2.198530e-02
2.171280e-02
2.151840e-02
2.140200e-02
2.270730e-02
2.242030e-02
2.218330e-02
2.199630e-02
2.185920e-02
2.309330e-02
2.289500e-02
2.271440e-02
2.255140e-02
2.240610e-02
2.075650e-02
2.079620e-02
2.077460e-02
2.069150e-02
2.054710e-02
2.103450e-02
2.093360e-02
2.086180e-02
2.081910e-02
2.080560e-02
2.140200e-02
2.118250e-02
2.106120e-02
2.103820e-02
2.111340e-02
2.185920e-02
2.154310e-02
2.137290e-02
2.134870e-02
2.147050e-02
2.240610e-02
2.201520e-02
2.179670e-02
2.175060e-02
2.187690e-02
2.054710e-02
1.933630e-02
1.837080e-02
1.765040e-02
1.717530e-02
2.080560e-02
1.934360e-02
1.842840e-02
1.806010e-02
1.823850e-02
2.111340e-02
1.947030e-02
1.861470e-02
1.854660e-02
1.926590e-02
2.147050e-02
1.971660e-02
1.892970e-02
1.910990e-02
2.025730e-02
2.187690e-02
2.008220e-02
1.937330e-02
1.975020e-02
2.121280e-02
1.717530e-02
1.213570e-02
9.465360e-03
9.164230e-03
1.123230e-02
1.823850e-02
1.328280e-02
1.069250e-02
1.046750e-02
1.260800e-02
1.926590e-02
1.469440e-02
1.234800e-02
1.222690e-02
1.433090e-02
2.025730e-02
1.637040e-02
1.443210e-02
1.444230e-02
1.640090e-02
2.121280e-02
1.831100e-02
1.694460e-02
1.711370e-02
1.881820e-02
1.123230e-02
-2.092890e-03
-1.262010e-02
-2.034920e-02
-2.528020e-02
1.260800e-02
4.930140e-03
-1.806720e-03
-7.602580e-03
-1.245740e-02
1.433090e-02
1.193700e-02
8.770920e-03
4.832620e-03
1.220930e-04
1.640090e-02
1.892770e-02
1.911290e-02
1.695640e-02
1.245840e-02
1.881820e-02
2.590230e-02
2.921910e-02
2.876890e-02
2.455150e-02
-2.528020e-02
-1.943680e-02
-1.367290e-02
-7.988550e-03
-2.383770e-03
-1.245740e-02
-1.019930e-02
-6.601970e-03
-1.665560e-03
4.609960e-03
1.220930e-04
-3.021230e-04
1.739290e-03
6.246340e-03
1.321900e-02
1.245840e-02
1.025470e-02
1.135090e-02
1.574720e-02
2.344340e-02
2.455150e-02
2.147110e-02
2.223290e-02
2.683690e-02
3.528320e-02
-2.383770e-03
-3.746090e-03
-3.461230e-03
-1.529190e-03
2.050020e-03
4.609960e-03
3.494430e-03
3.369260e-03
4.234430e-03
6.089960e-03
1.321900e-02
1.185710e-02
1.090850e-02
1.037350e-02
1.025190e-02
2.344340e-02
2.134180e-02
1.915660e-02
1.688800e-02
1.453580e-02
3.528320e-02
3.194860e-02
2.811350e-02
2.377790e-02
1.894170e-02
2.050020e-03
7.119910e-03
1.085140e-02
1.324450e-02
1.429920e-02
6.089960e-03
1.081480e-02
1.414580e-02
1.608290e-02
1.662610e-02
1.025190e-02
1.445920e-02
1.729260e-02
1.875200e-02
1.883760e-02
1.453580e-02
1.805290e-02
2.029160e-02
2.125180e-02
2.093360e-02
1.894170e-02
2.159610e-02
2.314290e-02
2.358230e-02
2.291420e-02
1.429920e-02
1.598750e-02
1.739290e-02
1.851550e-02
1.935520e-02
1.662610e-02
1.757640e-02
1.843690e-02
1.920790e-02
1.988910e-02
1.883760e-02
1.912710e-02
1.949500e-02
1.994130e-02
2.046610e-02
2.093360e-02
2.063960e-02
2.056710e-02
2.071590e-02
2.108620e-02
2.291420e-02
2.211390e-02
2.165310e-02
2.153160e-02
2.174960e-02
1.935520e-02
2.106530e-02
2.243620e-02
2.346780e-02
2.416030e-02
1.988910e-02
2.154210e-02
2.281040e-02
2.369390e-02
2.419260e-02
2.046610e-02
2.203420e-02
2.318400e-02
2.391530e-02
2.422830e-02
2.108620e-02
2.254160e-02
2.355690e-02
2.413220e-02
2.426740e-02
2.174960e-02
2.306420e-02
2.392920e-02
2.434440e-02
2.431000e-02
2.309330e-02
2.289500e-02
2.271440e-02
2.255140e-02
2.240610e-02
2.348320e-02
2.331640e-02
2.316870e-02
2.304020e-02
2.293080e-02
2.386930e-02
2.372630e-02
2.360640e-02
2.350970e-02
2.343630e-02
2.425160e-02
2.412470e-02
2.402750e-02
2.396010e-02
2.392250e-02
2.463000e-02
2.451160e-02
2.443200e-02
2.439130e-02
2.438950e-02
2.240610e-02
2.201520e-02
2.179670e-02
2.175060e-02
2.187690e-02
2.293080e-02
2.252900e-02
2.230010e-02
2.224420e-02
2.236130e-02
2.343630e-02
2.304020e-02
2.281380e-02
2.275690e-02
2.286970e-02
2.392250e-02
2.354890e-02
2.333760e-02
2.328870e-02
2.340210e-02
2.438950e-02
2.405510e-02
2.387180e-02
2.383960e-02
2.395860e-02
2.187690e-02
2.008220e-02
1.937330e-02
1.975020e-02
2.121280e-02
2.236130e-02
2.081700e-02
2.021150e-02
2.054470e-02
2.181680e-02
2.286970e-02
2.161980e-02
2.113760e-02
2.142290e-02
2.247590e-02
2.340210e-02
2.249070e-02
2.215160e-02
2.238470e-02
2.319000e-02
2.395860e-02
2.342960e-02
2.325350e-02
2.343000e-02
2.395930e-02
2.121280e-02
1.831100e-02
1.694460e-02
1.711370e-02
1.881820e-02
2.181680e-02
1.995630e-02
1.919840e-02
1.954300e-02
2.099010e-02
2.247590e-02
2.142030e-02
2.114330e-02
2.164460e-02
2.292450e-02
2.319000e-02
2.270310e-02
2.277930e-02
2.341860e-02
2.462120e-02
2.395930e-02
2.380450e-02
2.410640e-02
2.486500e-02
2.608030e-02
1.881820e-02
2.590230e-02
2.921910e-02
2.876890e-02
2.455150e-02
2.099010e-02
3.018460e-02
3.603930e-02
3.855420e-02
3.772920e-02
2.292450e-02
3.291940e-02
4.023170e-02
4.486130e-02
4.680820e-02
2.462120e-02
3.410670e-02
4.179630e-02
4.769020e-02
5.178820e-02
2.608030e-02
3.374640e-02
4.073320e-02
4.704090e-02
5.266940e-02
2.455150e-02
2.147110e-02
2.223290e-02
2.683690e-02
3.528320e-02
3.772920e-02
3.622930e-02
3.712390e-02
4.041310e-02
4.609690e-02
4.680820e-02
4.683620e-02
4.794420e-02
5.013200e-02
5.339970e-02
5.178820e-02
5.329200e-02
5.469380e-02
5.599370e-02
5.719170e-02
5.266940e-02
5.559650e-02
5.737270e-02
5.799820e-02
5.747280e-02
3.528320e-02
3.194860e-02
2.811350e-02
2.377790e-02
1.894170e-02
4.609690e-02
4.007310e-02
3.418920e-02
2.844500e-02
2.284060e-02
5.339970e-02
4.565360e-02
3.854920e-02
3.208660e-02
2.626570e-02
5.719170e-02
4.868990e-02
4.119360e-02
3.470260e-02
2.921710e-02
5.747280e-02
4.918220e-02
4.212230e-02
3.629320e-02
3.169490e-02
1.894170e-02
2.159610e-02
2.314290e-02
2.358230e-02
2.291420e-02
2.284060e-02
2.453700e-02
2.537170e-02
2.534470e-02
2.445580e-02
2.626570e-02
2.712510e-02
2.733310e-02
2.688970e-02
2.579490e-02
2.921710e-02
2.936010e-02
2.902680e-02
2.821720e-02
2.693130e-02
3.169490e-02
3.124230e-02
3.045310e-02
2.932740e-02
2.786520e-02
2.291420e-02
2.211390e-02
2.165310e-02
2.153160e-02
2.174960e-02
2.445580e-02
2.345820e-02
2.281090e-02
2.251380e-02
2.256700e-02
2.579490e-02
2.465850e-02
2.387310e-02
2.343870e-02
2.335530e-02
2.693130e-02
2.571470e-02
2.483960e-02
2.430620e-02
2.411440e-02
2.786520e-02
2.662680e-02
2.571060e-02
2.511630e-02
2.484420e-02
2.174960e-02
2.306420e-02
2.392920e-02
2.434440e-02
2.431000e-02
2.256700e-02
2.359090e-02
2.425080e-02
2.454670e-02
2.447860e-02
2.335530e-02
2.410020e-02
2.456500e-02
2.474980e-02
2.465450e-02
2.411440e-02
2.459200e-02
2.487180e-02
2.495370e-02
2.483770e-02
2.484420e-02
2.506650e-02
2.517120e-02
2.515850e-02
2.502820e-02
2.463000e-02
2.451160e-02
2.443200e-02
2.439130e-02
2.438950e-02
2.499690e-02
2.490300e-02
2.484580e-02
2.482550e-02
2.484190e-02
2.534870e-02
2.528260e-02
2.524960e-02
2.524990e-02
2.528340e-02
2.568540e-02
2.565040e-02
2.564340e-02
2.566460e-02
2.571380e-02
2.600690e-02
2.600640e-02
2.602720e-02
2.606960e-02
2.613330e-02
2.438950e-02
2.405510e-02
2.387180e-02
2.383960e-02
2.395860e-02
2.484190e-02
2.456640e-02
2.442230e-02
2.440970e-02
2.452870e-02
2.528340e-02
2.506540e-02
2.496110e-02
2.497060e-02
2.509380e-02
2.571380e-02
2.555210e-02
2.548830e-02
2.552220e-02
2.565410e-02
2.613330e-02
2.602660e-02
2.600370e-02
2.606460e-02
2.620930e-02
2.395860e-02
2.342960e-02
2.325350e-02
2.343000e-02
2.395930e-02
2.452870e-02
2.422240e-02
2.419270e-02
2.443950e-02
2.496280e-02
2.509380e-02
2.495180e-02
2.503680e-02
2.534880e-02
2.588760e-02
2.565410e-02
2.561790e-02
2.578580e-02
2.615770e-02
2.673370e-02
2.620930e-02
2.622060e-02
2.643970e-02
2.686640e-02
2.750090e-02
2.395930e-02
2.380450e-02
2.410640e-02
2.486500e-02
2.608030e-02
2.496280e-02
2.509270e-02
2.562520e-02
2.656010e-02
2.789760e-02
2.588760e-02
2.630910e-02
2.705810e-02
2.813450e-02
2.953840e-02
2.673370e-02
2.745360e-02
2.840510e-02
2.958810e-02
3.100250e-02
2.750090e-02
2.852630e-02
2.966630e-02
3.092090e-02
3.229000e-02
2.608030e-02
3.374640e-02
4.073320e-02
4.704090e-02
5.266940e-02
2.789760e-02
3.434080e-02
4.034580e-02
4.591260e-02
5.104120e-02
2.953840e-02
3.488720e-02
3.996830e-02
4.478150e-02
4.932690e-02
3.100250e-02
3.538560e-02
3.960070e-02
4.364760e-02
4.752660e-02
3.229000e-02
3.583600e-02
3.924300e-02
4.251100e-02
4.564010e-02
5.266940e-02
5.559650e-02
5.737270e-02
5.799820e-02
5.747280e-02
5.104120e-02
5.406780e-02
5.583750e-02
5.635020e-02
5.560600e-02
4.932690e-02
5.219300e-02
5.381580e-02
5.419530e-02
5.333160e-02
4.752660e-02
4.997210e-02
5.130780e-02
5.153360e-02
5.064970e-02
4.564010e-02
4.740500e-02
4.831330e-02
4.836510e-02
4.756010e-02
5.747280e-02
4.918220e-02
4.212230e-02
3.629320e-02
3.169490e-02
5.560600e-02
4.864570e-02
4.265930e-02
3.764660e-02
3.360770e-02
5.333160e-02
4.771930e-02
4.280890e-02
3.860060e-02
3.509420e-02
5.064970e-02
4.640270e-02
4.257120e-02
3.915520e-02
3.615460e-02
4.756010e-02
4.469610e-02
4.194620e-02
3.931040e-02
3.678870e-02
3.169490e-02
3.124230e-02
3.045310e-02
2.932740e-02
2.786520e-02
3.360770e-02
3.255580e-02
3.136120e-02
3.002370e-02
2.854350e-02
3.509420e-02
3.355520e-02
3.204430e-02
3.056150e-02
2.910680e-02
3.615460e-02
3.424060e-02
3.250260e-02
3.094080e-02
2.955500e-02
3.678870e-02
3.461180e-02
3.273610e-02
3.116160e-02
2.988820e-02
2.786520e-02
2.662680e-02
2.571060e-02
2.511630e-02
2.484420e-02
2.854350e-02
2.742060e-02
2.654580e-02
2.591930e-02
2.554090e-02
2.910680e-02
2.809920e-02
2.727190e-02
2.662460e-02
2.615750e-02
2.955500e-02
2.866280e-02
2.788860e-02
2.723230e-02
2.669400e-02
2.988820e-02
2.911130e-02
2.839600e-02
2.774230e-02
2.715030e-02
2.484420e-02
2.506650e-02
2.517120e-02
2.515850e-02
2.502820e-02
2.554090e-02
2.553070e-02
2.547550e-02
2.537510e-02
2.522980e-02
2.615750e-02
2.594800e-02
2.575670e-02
2.558350e-02
2.542850e-02
2.669400e-02
2.631830e-02
2.601480e-02
2.578350e-02
2.562430e-02
2.715030e-02
2.664170e-02
2.625000e-02
2.597520e-02
2.581740e-02
2.600690e-02
2.600640e-02
2.602720e-02
2.606960e-02
2.613330e-02
2.630990e-02
2.634170e-02
2.639030e-02
2.645550e-02
2.653750e-02
2.659390e-02
2.665640e-02
2.673080e-02
2.681740e-02
2.691600e-02
2.685910e-02
2.695020e-02
2.704890e-02
2.715520e-02
2.726900e-02
2.710540e-02
2.722330e-02
2.734440e-02
2.746880e-02
2.759640e-02
2.613330e-02
2.602660e-02
2.600370e-02
2.606460e-02
2.620930e-02
2.653750e-02
2.646810e-02
2.647720e-02
2.656490e-02
2.673110e-02
2.691600e-02
2.687980e-02
2.691640e-02
2.702590e-02
2.720830e-02
2.726900e-02
2.726160e-02
2.732120e-02
2.744760e-02
2.764110e-02
2.759640e-02
2.761360e-02
2.769150e-02
2.783010e-02
2.802930e-02
2.620930e-02
2.622060e-02
2.643970e-02
2.686640e-02
2.750090e-02
2.673110e-02
2.681030e-02
2.707150e-02
2.751450e-02
2.813960e-02
2.720830e-02
2.735280e-02
2.765050e-02
2.810150e-02
2.870570e-02
2.764110e-02
2.784810e-02
2.817680e-02
2.862720e-02
2.919930e-02
2.802930e-02
2.829620e-02
2.865040e-02
2.909180e-02
2.962050e-02
2.750090e-02
2.852630e-02
2.966630e-02
3.092090e-02
3.229000e-02
2.813960e-02
2.922380e-02
3.040380e-02
3.167960e-02
3.305120e-02
2.870570e-02
2.978110e-02
3.094210e-02
3.218860e-02
3.352060e-02
2.919930e-02
3.019840e-02
3.128120e-02
3.244790e-02
3.369830e-02
2.962050e-02
3.047540e-02
3.142100e-02
3.245740e-02
3.358440e-02
3.229000e-02
3.583600e-02
3.924300e-02
4.251100e-02
4.564010e-02
3.305120e-02
3.598560e-02
3.876960e-02
4.140310e-02
4.388620e-02
3.352060e-02
3.594140e-02
3.820630e-02
4.031550e-02
4.226890e-02
3.369830e-02
3.570320e-02
3.755310e-02
3.924810e-02
4.078830e-02
3.358440e-02
3.527100e-02
3.680990e-02
3.820100e-02
3.944430e-02
4.564010e-02
4.740500e-02
4.831330e-02
4.836510e-02
4.756010e-02
4.388620e-02
4.525150e-02
4.595040e-02
4.598280e-02
4.534890e-02
4.226890e-02
4.334470e-02
4.389990e-02
4.393480e-02
4.344910e-02
4.078830e-02
4.168460e-02
4.216210e-02
4.222080e-02
4.186080e-02
3.944430e-02
4.027120e-02
4.073680e-02
4.084110e-02
4.058400e-02
4.756010e-02
4.469610e-02
4.194620e-02
3.931040e-02
3.678870e-02
4.534890e-02
4.307140e-02
4.085380e-02
3.869600e-02
3.659810e-02
4.344910e-02
4.164910e-02
3.986700e-02
3.810260e-02
3.635600e-02
4.186080e-02
4.042920e-02
3.898570e-02
3.753010e-02
3.606250e-02
4.058400e-02
3.941170e-02
3.820990e-02
3.697850e-02
3.571760e-02
3.678870e-02
3.461180e-02
3.273610e-02
3.116160e-02
2.988820e-02
3.659810e-02
3.465970e-02
3.296310e-02
3.150830e-02
3.029530e-02
3.635600e-02
3.464000e-02
3.311350e-02
3.177650e-02
3.062900e-02
3.606250e-02
3.455260e-02
3.318710e-02
3.196600e-02
3.088930e-02
3.571760e-02
3.439760e-02
3.318400e-02
3.207690e-02
3.107620e-02
2.988820e-02
2.911130e-02
2.839600e-02
2.774230e-02
2.715030e-02
3.029530e-02
2.949580e-02
2.876130e-02
2.809180e-02
2.748740e-02
3.062900e-02
2.981060e-02
2.906200e-02
2.838310e-02
2.777410e-02
3.088930e-02
3.005580e-02
2.929810e-02
2.861630e-02
2.801040e-02
3.107620e-02
3.023140e-02
2.946980e-02
2.879140e-02
2.819630e-02
2.715030e-02
2.664170e-02
2.625000e-02
2.597520e-02
2.581740e-02
2.748740e-02
2.696050e-02
2.653630e-02
2.621460e-02
2.599560e-02
2.777410e-02
2.724100e-02
2.679450e-02
2.643460e-02
2.616130e-02
2.801040e-02
2.748310e-02
2.702470e-02
2.663520e-02
2.631460e-02
2.819630e-02
2.768680e-02
2.722680e-02
2.681640e-02
2.645550e-02
2.710540e-02
2.722330e-02
2.734440e-02
2.746880e-02
2.759640e-02
2.733260e-02
2.746650e-02
2.760290e-02
2.774170e-02
2.788310e-02
2.754220e-02
2.768960e-02
2.783860e-02
2.798920e-02
2.814130e-02
2.773410e-02
2.789270e-02
2.805170e-02
2.821120e-02
2.837110e-02
2.790840e-02