<?xml version="1.0"?>
<VTKFile type="UnstructuredGrid" version="0.1" byte_order="LittleEndian" compressor="vtkZLibDataCompressor">
<UnstructuredGrid>
<Piece NumberOfPoints="2500" NumberOfCells="1600">
<Points>
<DataArray type="Float32" NumberOfComponents="3" format="ascii">
-3.630000e+00 0.000000e+00 0.000000e+00
-3.448500e+00 0.000000e+00 0.000000e+00
-3.267000e+00 0.000000e+00 0.000000e+00
-3.085500e+00 0.000000e+00 0.000000e+00
-2.904000e+00 0.000000e+00 0.000000e+00
-3.630000e+00 1.282500e-01 0.000000e+00
-3.448500e+00 1.282500e-01 0.000000e+00
-3.267000e+00 1.282500e-01 0.000000e+00
-3.085500e+00 1.282500e-01 0.000000e+00
-2.904000e+00 1.282500e-01 0.000000e+00
-3.630000e+00 2.565000e-01 0.000000e+00
-3.448500e+00 2.565000e-01 0.000000e+00
-3.267000e+00 2.565000e-01 0.000000e+00
-3.085500e+00 2.565000e-01 0.000000e+00
-2.904000e+00 2.565000e-01 0.000000e+00
-3.630000e+00 3.847500e-01 0.000000e+00
-3.448500e+00 3.847500e-01 0.000000e+00
-3.267000e+00 3.847500e-01 0.000000e+00
-3.085500e+00 3.847500e-01 0.000000e+00
-2.904000e+00 3.847500e-01 0.000000e+00
-3.630000e+00 5.130000e-01 0.000000e+00
-3.448500e+00 5.130000e-01 0.000000e+00
-3.267000e+00 5.130000e-01 0.000000e+00
-3.085500e+00 5.130000e-01 0.000000e+00
-2.904000e+00 5.130000e-01 0.000000e+00
-2.904000e+00 0.000000e+00 0.000000e+00
-2.722500e+00 0.000000e+00 0.000000e+00
-2.541000e+00 0.000000e+00 0.000000e+00
-2.359500e+00 0.000000e+00 0.000000e+00
-2.178000e+00 0.000000e+00 0.000000e+00
-2.904000e+00 1.282500e-01 0.000000e+00
-2.722500e+00 1.282500e-01 0.000000e+00
-2.541000e+00 1.282500e-01 0.000000e+00
-2.359500e+00 1.282500e-01 0.000000e+00
-2.178000e+00 1.282500e-01 0.000000e+00
-2.904000e+00 2.565000e-01 0.000000e+00
-2.722500e+00 2.565000e-01 0.000000e+00
-2.541000e+00 2.565000e-01 0.000000e+00
-2.359500e+00 2.565000e-01 0.000000e+00
-2.178000e+00 2.565000e-01 0.000000e+00
-2.904000e+00 3.847500e-01 0.000000e+00
-2.722500e+00 3.847500e-01 0.000000e+00
-2.541000e+00 3.847500e-01 0.000000e+00
-2.359500e+00 3.847500e-01 0.000000e+00
-2.178000e+00 3.847500e-01 0.000000e+00
-2.904000e+00 5.130000e-01 0.000000e+00
-2.722500e+00 5.130000e-01 0.000000e+00
-2.541000e+00 5.130000e-01 0.000000e+00
-2.359500e+00 5.130000e-01 0.000000e+00
-2.178000e+00 5.130000e-01 0.000000e+00
-2.178000e+00 0.000000e+00 0.000000e+00
-1.996500e+00 0.000000e+00 0.000000e+00
-1.815000e+00 0.000000e+00 0.000000e+00
-1.633500e+00 0.000000e+00 0.000000e+00
-1.452000e+00 0.000000e+00 0.000000e+00
-2.178000e+00 1.282500e-01 0.000000e+00
-1.996500e+00 1.282500e-01 0.000000e+00
-1.815000e+00 1.282500e-01 0.000000e+00
-1.633500e+00 1.282500e-01 0.000000e+00
-1.452000e+00 1.282500e-01 0.000000e+00
-2.178000e+00 2.565000e-01 0.000000e+00
-1.996500e+00 2.565000e-01 0.000000e+00
-1.815000e+00 2.565000e-01 0.000000e+00
-1.633500e+00 2.565000e-01 0.000000e+00
-1.452000e+00 2.565000e-01 0.000000e+00
-2.178000e+00 3.847500e-01 0.000000e+00
-1.996500e+00 3.847500e-01 0.000000e+00
-1.815000e+00 3.847500e-01 0.000000e+00
-1.633500e+00 3.847500e-01 0.000000e+00
-1.452000e+00 3.847500e-01 0.000000e+00
-2.178000e+00 5.130000e-01 0.000000e+00
-1.996500e+00 5.130000e-01 0.000000e+00
-1.815000e+00 5.130000e-01 0.000000e+00
-1.633500e+00 5.130000e-01 0.000000e+00
-1.452000e+00 5.130000e-01 0.000000e+00
-1.452000e+00 0.000000e+00 0.000000e+00
-1.270500e+00 0.000000e+00 0.000000e+00
-1.089000e+00 0.000000e+00 0.000000e+00
-9.075000e-01 0.000000e+00 0.000000e+00
-7.260000e-01 0.000000e+00 0.000000e+00
-1.452000e+00 1.282500e-01 0.000000e+00
-1.270500e+00 1.282500e-01 0.000000e+00
-1.089000e+00 1.282500e-01 0.000000e+00
-9.075000e-01 1.282500e-01 0.000000e+00
-7.260000e-01 1.282500e-01 0.000000e+00
-1.452000e+00 2.565000e-01 0.000000e+00
-1.270500e+00 2.565000e-01 0.000000e+00
-1.089000e+00 2.565000e-01 0.000000e+00
-9.075000e-01 2.565000e-01 0.000000e+00
-7.260000e-01 2.565000e-01 0.000000e+00
-1.452000e+00 3.847500e-01 0.000000e+00
-1.270500e+00 3.847500e-01 0.000000e+00
-1.089000e+00 3.847500e-01 0.000000e+00
-9.075000e-01 3.847500e-01 0.000000e+00
-7.260000e-01 3.847500e-01 0.000000e+00
-1.452000e+00 5.130000e-01 0.000000e+00
-1.270500e+00 5.130000e-01 0.000000e+00
-1.089000e+00 5.130000e-01 0.000000e+00
-9.075000e-01 5.130000e-01 0.000000e+00
-7.260000e-01 5.130000e-01 0.000000e+00
-7.260000e-01 0.000000e+00 0.000000e+00
-5.445000e-01 0.000000e+00 0.000000e+00
-3.630000e-01 0.000000e+00 0.000000e+00
-1.815000e-01 0.000000e+00 0.000000e+00
0.000000e+00 0.000000e+00 0.000000e+00
-7.260000e-01 1.282500e-01 0.000000e+00
-5.445000e-01 1.282500e-01 0.000000e+00
-3.630000e-01 1.282500e-01 0.000000e+00
-1.815000e-01 1.282500e-01 0.000000e+00
0.000000e+00 1.282500e-01 0.000000e+00
-7.260000e-01 2.565000e-01 0.000000e+00
-5.445000e-01 2.565000e-01 0.000000e+00
-3.630000e-01 2.565000e-01 0.000000e+00
-1.815000e-01 2.565000e-01 0.000000e+00
0.000000e+00 2.565000e-01 0.000000e+00
-7.260000e-01 3.847500e-01 0.000000e+00
-5.445000e-01 3.847500e-01 0.000000e+00
-3.630000e-01 3.847500e-01 0.000000e+00
-1.815000e-01 3.847500e-01 0.000000e+00
0.000000e+00 3.847500e-01 0.000000e+00
-7.260000e-01 5.130000e-01 0.000000e+00
-5.445000e-01 5.130000e-01 0.000000e+00
-3.630000e-01 5.130000e-01 0.000000e+00
-1.815000e-01 5.130000e-01 0.000000e+00
0.000000e+00 5.130000e-01 0.000000e+00
0.000000e+00 0.000000e+00 0.000000e+00
1.815000e-01 0.000000e+00 0.000000e+00
3.630000e-01 0.000000e+00 0.000000e+00
5.445000e-01 0.000000e+00 0.000000e+00
7.260000e-01 0.000000e+00 0.000000e+00
0.000000e+00 1.282500e-01 0.000000e+00
1.815000e-01 1.282500e-01 0.000000e+00
3.630000e-01 1.282500e-01 0.000000e+00
5.445000e-01 1.282500e-01 0.000000e+00
7.260000e-01 1.282500e-01 0.000000e+00
0.000000e+00 2.565000e-01 0.000000e+00
1.815000e-01 2.565000e-01 0.000000e+00
3.630000e-01 2.565000e-01 0.000000e+00
5.445000e-01 2.565000e-01 0.000000e+00
7.260000e-01 2.565000e-01 0.000000e+00
0.000000e+00 3.847500e-01 0.000000e+00
1.815000e-01 3.847500e-01 0.000000e+00
3.630000e-01 3.847500e-01 0.000000e+00
5.445000e-01 3.847500e-01 0.000000e+00
7.260000e-01 3.847500e-01 0.000000e+00
0.000000e+00 5.130000e-01 0.000000e+00
1.815000e-01 5.130000e-01 0.000000e+00
3.630000e-01 5.130000e-01 0.000000e+00
5.445000e-01 5.130000e-01 0.000000e+00
7.260000e-01 5.130000e-01 0.000000e+00
7.260000e-01 0.000000e+00 0.000000e+00
9.075000e-01 0.000000e+00 0.000000e+00
1.089000e+00 0.000000e+00 0.000000e+00
1.270500e+00 0.000000e+00 0.000000e+00
1.452000e+00 0.000000e+00 0.000000e+00
7.260000e-01 1.282500e-01 0.000000e+00
9.075000e-01 1.282500e-01 0.000000e+00
1.089000e+00 1.282500e-01 0.000000e+00
1.270500e+00 1.282500e-01 0.000000e+00
1.452000e+00 1.282500e-01 0.000000e+00
7.260000e-01 2.565000e-01 0.000000e+00
9.075000e-01 2.565000e-01 0.000000e+00
1.089000e+00 2.565000e-01 0.000000e+00
1.270500e+00 2.565000e-01 0.000000e+00
1.452000e+00 2.565000e-01 0.000000e+00
7.260000e-01 3.847500e-01 0.000000e+00
9.075000e-01 3.847500e-01 0.000000e+00
1.089000e+00 3.847500e-01 0.000000e+00
1.270500e+00 3.847500e-01 0.000000e+00
1.452000e+00 3.847500e-01 0.000000e+00
7.260000e-01 5.130000e-01 0.000000e+00
9.075000e-01 5.130000e-01 0.000000e+00
1.089000e+00 5.130000e-01 0.000000e+00
1.270500e+00 5.130000e-01 0.000000e+00
1.452000e+00 5.130000e-01 0.000000e+00
1.452000e+00 0.000000e+00 0.000000e+00
1.633500e+00 0.000000e+00 0.000000e+00
1.815000e+00 0.000000e+00 0.000000e+00
1.996500e+00 0.000000e+00 0.000000e+00
2.178000e+00 0.000000e+00 0.000000e+00
1.452000e+00 1.282500e-01 0.000000e+00
1.633500e+00 1.282500e-01 0.000000e+00
1.815000e+00 1.282500e-01 0.000000e+00
1.996500e+00 1.282500e-01 0.000000e+00
2.178000e+00 1.282500e-01 0.000000e+00
1.452000e+00 2.565000e-01 0.000000e+00
1.633500e+00 2.565000e-01 0.000000e+00
1.815000e+00 2.565000e-01 0.000000e+00
1.996500e+00 2.565000e-01 0.000000e+00
2.178000e+00 2.565000e-01 0.000000e+00
1.452000e+00 3.847500e-01 0.000000e+00
1.633500e+00 3.847500e-01 0.000000e+00
1.815000e+00 3.847500e-01 0.000000e+00
1.996500e+00 3.847500e-01 0.000000e+00
2.178000e+00 3.847500e-01 0.000000e+00
1.452000e+00 5.130000e-01 0.000000e+00
1.633500e+00 5.130000e-01 0.000000e+00
1.815000e+00 5.130000e-01 0.000000e+00
1.996500e+00 5.130000e-01 0.000000e+00
2.178000e+00 5.130000e-01 0.000000e+00
2.178000e+00 0.000000e+00 0.000000e+00
2.359500e+00 0.000000e+00 0.000000e+00
2.541000e+00 0.000000e+00 0.000000e+00
2.722500e+00 0.000000e+00 0.000000e+00
2.904000e+00 0.000000e+00 0.000000e+00
2.178000e+00 1.282500e-01 0.000000e+00
2.359500e+00 1.282500e-01 0.000000e+00
2.541000e+00 1.282500e-01 0.000000e+00
2.722500e+00 1.282500e-01 0.000000e+00
2.904000e+00 1.282500e-01 0.000000e+00
2.178000e+00 2.565000e-01 0.000000e+00
2.359500e+00 2.565000e-01 0.000000e+00
2.541000e+00 2.565000e-01 0.000000e+00
2.722500e+00 2.565000e-01 0.000000e+00
2.904000e+00 2.565000e-01 0.000000e+00
2.178000e+00 3.847500e-01 0.000000e+00
2.359500e+00 3.847500e-01 0.000000e+00
2.541000e+00 3.847500e-01 0.000000e+00
2.722500e+00 3.847500e-01 0.000000e+00
2.904000e+00 3.847500e-01 0.000000e+00
2.178000e+00 5.130000e-01 0.000000e+00
2.359500e+00 5.130000e-01 0.000000e+00
2.541000e+00 5.130000e-01 0.000000e+00
2.722500e+00 5.130000e-01 0.000000e+00
2.904000e+00 5.130000e-01 0.000000e+00
2.904000e+00 0.000000e+00 0.000000e+00
3.085500e+00 0.000000e+00 0.000000e+00
3.267000e+00 0.000000e+00 0.000000e+00
3.448500e+00 0.000000e+00 0.000000e+00
3.630000e+00 0.000000e+00 0.000000e+00
2.904000e+00 1.282500e-01 0.000000e+00
3.085500e+00 1.282500e-01 0.000000e+00
3.267000e+00 1.282500e-01 0.000000e+00
3.448500e+00 1.282500e-01 0.000000e+00
3.630000e+00 1.282500e-01 0.000000e+00
2.904000e+00 2.565000e-01 0.000000e+00
3.085500e+00 2.565000e-01 0.000000e+00
3.267000e+00 2.565000e-01 0.000000e+00
3.448500e+00 2.565000e-01 0.000000e+00
3.630000e+00 2.565000e-01 0.000000e+00
2.904000e+00 3.847500e-01 0.000000e+00
3.085500e+00 3.847500e-01 0.000000e+00
3.267000e+00 3.847500e-01 0.000000e+00
3.448500e+00 3.847500e-01 0.000000e+00
3.630000e+00 3.847500e-01 0.000000e+00
2.904000e+00 5.130000e-01 0.000000e+00
[...]
<PointData>
<DataArray type="Float32" Name="V1" format="ascii">
0.000000e+00
0.000000e+00
0.000000e+00
0.000000e+00
0.000000e+00
1.264110e-02
1.103360e-02
9.646760e-03
8.480730e-03
7.535460e-03
2.028400e-02
1.822650e-02
1.638780e-02
1.476810e-02
1.336730e-02
2.292870e-02
2.157870e-02
2.022320e-02
1.886210e-02
1.749560e-02
2.057510e-02
2.109020e-02
2.115280e-02
2.076280e-02
1.992040e-02
0.000000e+00
0.000000e+00
0.000000e+00
0.000000e+00
0.000000e+00
7.535460e-03
6.469570e-03
5.642560e-03
5.054410e-03
4.705130e-03
1.336730e-02
1.178060e-02
1.051310e-02
9.565060e-03
8.936340e-03
1.749560e-02
1.593300e-02
1.461170e-02
1.353200e-02
1.269360e-02
1.992040e-02
1.892680e-02
1.793840e-02
1.695510e-02
1.597700e-02
0.000000e+00
0.000000e+00
0.000000e+00
0.000000e+00
0.000000e+00
4.705130e-03
4.429660e-03
4.230750e-03
4.108400e-03
4.062630e-03
8.936340e-03
8.420500e-03
8.033370e-03
7.774950e-03
7.645240e-03
1.269360e-02
1.197250e-02
1.140790e-02
1.099960e-02
1.074780e-02
1.597700e-02
1.508580e-02
1.435430e-02
1.378250e-02
1.337040e-02
0.000000e+00
0.000000e+00
0.000000e+00
0.000000e+00
0.000000e+00
4.062630e-03
3.852200e-03
4.018360e-03
4.561120e-03
5.480470e-03
7.645240e-03
7.145160e-03
7.299560e-03
8.108440e-03
9.571800e-03
1.074780e-02
9.878870e-03
9.843580e-03
1.064200e-02
1.227400e-02
1.337040e-02
1.205340e-02
1.165040e-02
1.216170e-02
1.358710e-02
0.000000e+00
0.000000e+00
0.000000e+00
0.000000e+00
0.000000e+00
5.480470e-03
5.220710e-03
4.116330e-03
2.167310e-03
-6.263490e-04
9.571800e-03
8.745060e-03
6.496860e-03
2.827210e-03
-2.263910e-03
1.227400e-02
1.057300e-02
7.141600e-03
1.979700e-03
-4.912680e-03
1.358710e-02
1.070460e-02
6.050540e-03
-3.752210e-04
-8.572650e-03
0.000000e+00
0.000000e+00
0.000000e+00
0.000000e+00
0.000000e+00
-6.263490e-04
-2.366100e-03
-4.938410e-03
-8.343250e-03
-1.258060e-02
-2.263910e-03
-5.296710e-03
-9.538880e-03
-1.499040e-02
-2.165130e-02
-4.912680e-03
-8.791820e-03
-1.380140e-02
-1.994150e-02
-2.721200e-02
-8.572650e-03
-1.285140e-02
-1.772600e-02
-2.319650e-02
-2.926280e-02
0.000000e+00
0.000000e+00
0.000000e+00
0.000000e+00
0.000000e+00
-1.258060e-02
-1.310260e-02
-1.264180e-02
-1.119830e-02
-8.772050e-03
-2.165130e-02
-2.195020e-02
-2.079230e-02
-1.817770e-02
-1.410640e-02
-2.721200e-02
-2.654280e-02
-2.445150e-02
-2.093830e-02
-1.600310e-02
-2.926280e-02
-2.688040e-02
-2.361950e-02
-1.948010e-02
-1.446220e-02
0.000000e+00
0.000000e+00
0.000000e+00
0.000000e+00
0.000000e+00
-8.772050e-03
-7.777520e-03
-6.254690e-03
-4.203560e-03
-1.624130e-03
-1.410640e-02
-1.237080e-02
-9.812820e-03
-6.432570e-03
-2.230010e-03
-1.600310e-02
-1.377970e-02
-1.067440e-02
-6.687010e-03
-1.817650e-03
-1.446220e-02
-1.200450e-02
-8.839370e-03
-4.966900e-03
-3.870410e-04
0.000000e+00
0.000000e+00
0.000000e+00
0.000000e+00
0.000000e+00
-1.624130e-03
5.296440e-04
2.313530e-03
3.727530e-03
4.771630e-03
-2.230010e-03
1.374200e-03
4.360260e-03
6.728170e-03
8.477930e-03
-1.817650e-03
2.533670e-03
6.140200e-03
9.001940e-03
1.111890e-02
-3.870410e-04
4.008060e-03
7.653350e-03
1.054880e-02
1.269450e-02
0.000000e+00
0.000000e+00
0.000000e+00
0.000000e+00
0.000000e+00
4.771630e-03
5.827480e-03
6.777120e-03
7.620570e-03
8.357820e-03
8.477930e-03
1.026700e-02
1.186300e-02
1.326580e-02
1.447550e-02
1.111890e-02
1.331870e-02
1.525760e-02
1.693580e-02
1.835310e-02
1.269450e-02
1.498240e-02
1.696100e-02
1.863040e-02
1.999060e-02
2.057510e-02
2.109020e-02
2.115280e-02
2.076280e-02
1.992040e-02
2.078850e-02
2.098030e-02
2.100190e-02
2.085320e-02
2.053440e-02
2.103660e-02
2.097110e-02
2.092240e-02
2.089020e-02
2.087480e-02
2.131930e-02
2.106270e-02
2.091420e-02
2.087390e-02
2.094160e-02
2.163650e-02
2.125500e-02
2.097750e-02
2.080410e-02
2.073490e-02
1.992040e-02
1.892680e-02
1.793840e-02
1.695510e-02
1.597700e-02
2.053440e-02
2.004330e-02
1.947680e-02
1.883510e-02
1.811790e-02
2.087480e-02
2.074420e-02
2.049790e-02
2.013590e-02
1.965820e-02
2.094160e-02
2.102950e-02
2.100150e-02
2.085760e-02
2.059790e-02
2.073490e-02
2.089920e-02
2.098760e-02
2.100020e-02
2.093700e-02
1.597700e-02
1.508580e-02
1.435430e-02
1.378250e-02
1.337040e-02
1.811790e-02
1.728260e-02
1.656240e-02
1.595750e-02
1.546780e-02
1.965820e-02
1.890230e-02
1.823450e-02
1.765470e-02
1.716290e-02
2.059790e-02
1.994500e-02
1.937040e-02
1.887390e-02
1.845560e-02
2.093700e-02
2.041070e-02
1.997010e-02
1.961530e-02
1.934610e-02
1.337040e-02
1.205340e-02
1.165040e-02
1.216170e-02
1.358710e-02
1.546780e-02
1.359020e-02
1.285160e-02
1.325200e-02
1.479140e-02
1.716290e-02
1.482700e-02
1.383810e-02
1.419620e-02
1.590120e-02
1.845560e-02
1.576370e-02
1.460990e-02
1.499420e-02
1.691650e-02
1.934610e-02
1.640040e-02
1.516700e-02
1.564600e-02
1.783730e-02
1.358710e-02
1.070460e-02
6.050540e-03
-3.752210e-04
-8.572650e-03
1.479140e-02
1.070520e-02
5.222000e-03
-1.658080e-03
-9.935060e-03
1.590120e-02
1.101530e-02
5.072050e-03
-1.928410e-03
-9.986120e-03
1.691650e-02
1.163490e-02
5.600690e-03
-1.186230e-03
-8.725810e-03
1.783730e-02
1.256420e-02
6.807920e-03
5.684760e-04
-6.154150e-03
-8.572650e-03
-1.285140e-02
-1.772600e-02
-2.319650e-02
-2.926280e-02
-9.935060e-03
-1.276170e-02
-1.680760e-02
-2.207270e-02
-2.855710e-02
-9.986120e-03
-1.103100e-02
-1.400810e-02
-1.891730e-02
-2.575880e-02
-8.725810e-03
-7.659260e-03
-9.327460e-03
-1.373040e-02
-2.086820e-02
-6.154150e-03
-2.646540e-03
-2.765820e-03
-6.511980e-03
-1.388500e-02
-2.926280e-02
-2.688040e-02
-2.361950e-02
-1.948010e-02
-1.446220e-02
-2.855710e-02
-2.638620e-02
-2.313580e-02
-1.880590e-02
-1.339660e-02
-2.575880e-02
-2.412420e-02
-2.109940e-02
-1.668430e-02
-1.087890e-02
-2.086820e-02
-2.009450e-02
-1.751010e-02
-1.311500e-02
-6.909090e-03
-1.388500e-02
-1.429700e-02
-1.236810e-02
-8.098130e-03
-1.487190e-03
-1.446220e-02
-1.200450e-02
-8.839370e-03
-4.966900e-03
-3.870410e-04
-1.339660e-02
-1.150530e-02
-8.609270e-03
-4.708630e-03
1.966740e-04
-1.087890e-02
-9.623930e-03
-7.180460e-03
-3.548470e-03
1.272040e-03
-6.909090e-03
-6.360500e-03
-4.552940e-03
-1.486420e-03
2.839070e-03
-1.487190e-03
-1.714950e-03
-7.267100e-04
1.477520e-03
4.897740e-03
-3.870410e-04
4.008060e-03
7.653350e-03
1.054880e-02
1.269450e-02
1.966740e-04
5.044480e-03
8.934460e-03
1.186660e-02
1.384100e-02
1.272040e-03
6.370410e-03
1.034680e-02
1.320120e-02
1.493370e-02
2.839070e-03
7.985850e-03
1.189040e-02
1.455270e-02
1.597270e-02
4.897740e-03
9.890810e-03
1.356520e-02
1.592090e-02
1.695790e-02
1.269450e-02
1.498240e-02
1.696100e-02
1.863040e-02
1.999060e-02
1.384100e-02
1.593860e-02
1.782140e-02
1.948930e-02
2.094230e-02
1.493370e-02
1.679370e-02
1.852770e-02
2.013550e-02
2.161720e-02
1.597270e-02
1.754780e-02
1.907990e-02
2.056900e-02
2.201510e-02
1.695790e-02
1.820080e-02
1.947820e-02
2.079000e-02
2.213620e-02
2.163650e-02
2.125500e-02
2.097750e-02
2.080410e-02
2.073490e-02
2.197900e-02
2.160130e-02
2.131200e-02
2.111110e-02
2.099860e-02
2.233590e-02
2.198570e-02
2.170580e-02
2.149610e-02
2.135680e-02
2.270730e-02
2.240810e-02
2.215880e-02
2.195920e-02
2.180940e-02
2.309330e-02
2.286860e-02
2.267090e-02
2.250020e-02
2.235650e-02
2.073490e-02
2.089920e-02
2.098760e-02
2.100020e-02
2.093700e-02
2.099860e-02
2.106610e-02
2.111640e-02
2.114940e-02
2.116510e-02
2.135680e-02
2.133680e-02
2.134370e-02
2.137760e-02
2.143840e-02
2.180940e-02
2.171110e-02
2.166960e-02
2.168490e-02
2.175700e-02
2.235650e-02
2.218920e-02
2.209410e-02
2.207130e-02
2.212080e-02
2.093700e-02
2.041070e-02
1.997010e-02
1.961530e-02
1.934610e-02
2.116510e-02
2.066280e-02
2.030350e-02
2.008720e-02
2.001390e-02
2.143840e-02
2.094150e-02
2.063990e-02
2.053370e-02
2.062290e-02
2.175700e-02
2.124670e-02
2.097930e-02
2.095470e-02
2.117300e-02
2.212080e-02
2.157850e-02
2.132170e-02
2.135030e-02
2.166440e-02
1.934610e-02
1.640040e-02
1.516700e-02
1.564600e-02
1.783730e-02
2.001390e-02
1.706340e-02
1.586080e-02
1.640620e-02
1.869940e-02
2.062290e-02
1.778560e-02
1.666260e-02
1.725380e-02
1.955930e-02
2.117300e-02
1.856710e-02
1.757240e-02
1.818900e-02
2.041680e-02
2.166440e-02
1.940780e-02
1.859010e-02
1.921160e-02
2.127200e-02
1.783730e-02
1.256420e-02
6.807920e-03
5.684760e-04
-6.154150e-03
1.869940e-02
1.418190e-02
9.132340e-03
3.550620e-03
-2.563220e-03
1.955930e-02
1.608550e-02
1.190030e-02
7.003830e-03
1.396020e-03
2.041680e-02
1.827470e-02
1.511180e-02
1.092810e-02
5.723580e-03
2.127200e-02
2.074980e-02
1.876690e-02
1.532350e-02
1.041940e-02
-6.154150e-03
-2.646540e-03
-2.765820e-03
-6.511980e-03
-1.388500e-02
-2.563220e-03
2.848610e-03
4.231940e-03
1.586780e-03
-5.086880e-03
1.396020e-03
8.101810e-03
1.075690e-02
9.361430e-03
3.915260e-03
5.723580e-03
1.311310e-02
1.680920e-02
1.681200e-02
1.312140e-02
1.041940e-02
1.788240e-02
2.238870e-02
2.393840e-02
2.253150e-02
-1.388500e-02
-1.429700e-02
-1.236810e-02
-8.098130e-03
-1.487190e-03
-5.086880e-03
-6.840480e-03
-5.831200e-03
-2.059030e-03
4.476020e-03
3.915260e-03
1.419130e-03
1.761070e-03
4.941070e-03
1.095910e-02
1.312140e-02
1.048180e-02
1.040870e-02
1.290220e-02
1.796220e-02
2.253150e-02
2.034750e-02
2.011170e-02
2.182430e-02
2.548510e-02
-1.487190e-03
-1.714950e-03
-7.267100e-04
1.477520e-03
4.897740e-03
4.476020e-03
3.604820e-03
3.811740e-03
5.096770e-03
7.459930e-03
1.095910e-02
9.404100e-03
8.807930e-03
9.170630e-03
1.049220e-02
1.796220e-02
1.568290e-02
1.426190e-02
1.369910e-02
1.399460e-02
2.548510e-02
2.244120e-02
2.017350e-02
1.868220e-02
1.796710e-02
4.897740e-03
9.890810e-03
1.356520e-02
1.592090e-02
1.695790e-02
7.459930e-03
1.206420e-02
1.535090e-02
1.732000e-02
1.797150e-02
1.049220e-02
1.450240e-02
1.725090e-02
1.873780e-02
1.896310e-02
1.399460e-02
1.720540e-02
1.926540e-02
2.017450e-02
1.993270e-02
1.796710e-02
2.017320e-02
2.139420e-02
2.162990e-02
2.088040e-02
1.695790e-02
1.820080e-02
1.947820e-02
2.079000e-02
2.213620e-02
1.797150e-02
1.913510e-02
2.025960e-02
2.134520e-02
2.239170e-02
1.896310e-02
2.006390e-02
2.104960e-02
2.192040e-02
2.267620e-02
1.993270e-02
2.098720e-02
2.184820e-02
2.251570e-02
2.298960e-02
2.088040e-02
2.190510e-02
2.265530e-02
2.313100e-02
2.333210e-02
2.309330e-02
2.286860e-02
2.267090e-02
2.250020e-02
2.235650e-02
2.348320e-02
2.330420e-02
2.314530e-02
2.300640e-02
2.288750e-02
2.386930e-02
2.373180e-02
2.360780e-02
2.349740e-02
2.340040e-02
2.425160e-02
2.415130e-02
2.405850e-02
2.397320e-02
2.389530e-02
2.463000e-02
2.456280e-02
2.449750e-02
2.443380e-02
2.437200e-02
2.235650e-02
2.218920e-02
2.209410e-02
2.207130e-02
2.212080e-02
2.288750e-02
2.271380e-02
2.260240e-02
2.255320e-02
2.256630e-02
2.340040e-02
2.323110e-02
2.311360e-02
2.304800e-02
2.303430e-02
2.389530e-02
2.374090e-02
2.362770e-02
2.355570e-02
2.352480e-02
2.437200e-02
2.424340e-02
2.414480e-02
2.407630e-02
2.403780e-02
2.212080e-02
2.157850e-02
2.132170e-02
2.135030e-02
2.166440e-02
2.256630e-02
2.207570e-02
2.183240e-02
2.183650e-02
2.208780e-02
2.303430e-02
2.260820e-02
2.238920e-02
2.237710e-02
2.257200e-02
2.352480e-02
2.317600e-02
2.299180e-02
2.297210e-02
2.311690e-02
2.403780e-02
2.377920e-02
2.364040e-02
2.362160e-02
2.372250e-02
2.166440e-02
1.940780e-02
1.859010e-02
1.921160e-02
2.127200e-02
2.208780e-02
2.043690e-02
1.983250e-02
2.027480e-02
2.176370e-02
2.257200e-02
2.145880e-02
2.106300e-02
2.138450e-02
2.242330e-02
2.311690e-02
2.247370e-02
2.228170e-02
2.254080e-02
2.325100e-02
2.372250e-02
2.348150e-02
2.348850e-02
2.374350e-02
2.424660e-02
2.127200e-02
2.074980e-02
1.876690e-02
1.532350e-02
1.041940e-02
2.176370e-02
2.301920e-02
2.257950e-02
2.044460e-02
1.661460e-02
2.242330e-02
2.480210e-02
2.558940e-02
2.478530e-02
2.238970e-02
2.325100e-02
2.609860e-02
2.779670e-02
2.834540e-02
2.774470e-02
2.424660e-02
2.690860e-02
2.920150e-02
3.112510e-02
3.267960e-02
1.041940e-02
1.788240e-02
2.238870e-02
2.393840e-02
2.253150e-02
1.661460e-02
2.308580e-02
2.762000e-02
3.021700e-02
3.087690e-02
2.238970e-02
2.816400e-02
3.269730e-02
3.598960e-02
3.804090e-02
2.774470e-02
3.311680e-02
3.762060e-02
4.125620e-02
4.402360e-02
3.267960e-02
3.794420e-02
4.238990e-02
4.601680e-02
4.882480e-02
2.253150e-02
2.034750e-02
2.011170e-02
2.182430e-02
2.548510e-02
3.087690e-02
2.916380e-02
2.862430e-02
2.925820e-02
3.106560e-02
3.804090e-02
3.665400e-02
3.583600e-02
3.558690e-02
3.590670e-02
4.402360e-02
4.281810e-02
4.174710e-02
4.081050e-02
4.000840e-02
4.882480e-02
4.765600e-02
4.635730e-02
4.492890e-02
4.337060e-02
2.548510e-02
2.244120e-02
2.017350e-02
1.868220e-02
1.796710e-02
3.106560e-02
2.791780e-02
2.537860e-02
2.344780e-02
2.212570e-02
3.590670e-02
3.264400e-02
2.985600e-02
2.754280e-02
2.570450e-02
4.000840e-02
3.661960e-02
3.360590e-02
3.096720e-02
2.870350e-02
4.337060e-02
3.984480e-02
3.662820e-02
3.372090e-02
3.112270e-02
1.796710e-02
2.017320e-02
2.139420e-02
2.162990e-02
2.088040e-02
2.212570e-02
2.300220e-02
2.322290e-02
2.278770e-02
2.169660e-02
2.570450e-02
2.547320e-02
2.487360e-02
2.390560e-02
2.256940e-02
2.870350e-02
2.758610e-02
2.634620e-02
2.498370e-02
2.349860e-02
3.112270e-02
2.934100e-02
2.764070e-02
2.602190e-02
2.448450e-02
2.088040e-02
2.190510e-02
2.265530e-02
2.313100e-02
2.333210e-02
2.169660e-02
2.282140e-02
2.353880e-02
2.384880e-02
2.375160e-02
2.256940e-02
2.372730e-02
2.437380e-02
2.450900e-02
2.413280e-02
2.349860e-02
2.462290e-02
2.516040e-02
2.511140e-02
2.447580e-02
2.448450e-02
2.550810e-02
2.589870e-02
2.565610e-02
2.478050e-02
2.463000e-02
2.456280e-02
2.449750e-02
2.443380e-02
2.437200e-02
2.499690e-02
2.495730e-02
2.491850e-02
2.488050e-02
2.484320e-02
2.534870e-02
2.533600e-02
2.532340e-02
2.531090e-02
2.529840e-02
2.568540e-02
2.569890e-02
2.571220e-02
2.572500e-02
2.573750e-02
2.600690e-02
2.604600e-02
2.608470e-02
2.612280e-02
2.616050e-02
2.437200e-02
2.424340e-02
2.414480e-02
2.407630e-02
2.403780e-02
2.484320e-02
2.472540e-02
2.464240e-02
2.459420e-02
2.458060e-02
2.529840e-02
2.519350e-02
2.512720e-02
2.509940e-02
2.511010e-02
2.573750e-02
2.564750e-02
2.559900e-02
2.559190e-02
2.562620e-02
2.616050e-02
2.608750e-02
2.605800e-02
2.607180e-02
2.612900e-02
2.403780e-02
2.377920e-02
2.364040e-02
2.362160e-02
2.372250e-02
2.458060e-02
2.436260e-02
2.426850e-02
2.429830e-02
2.445190e-02
2.511010e-02
2.493400e-02
2.488120e-02
2.495180e-02
2.514580e-02
2.562620e-02
2.549310e-02
2.547840e-02
2.558220e-02
2.580430e-02
2.612900e-02
2.604020e-02
2.606030e-02
2.618930e-02
2.642730e-02
2.372250e-02
2.348150e-02
2.348850e-02
2.374350e-02
2.424660e-02
2.445190e-02
2.433600e-02
2.447360e-02
2.486470e-02
2.550920e-02
2.514580e-02
2.513970e-02
2.537900e-02
2.586370e-02
2.659370e-02
2.580430e-02
2.589250e-02
2.620460e-02
2.674050e-02
2.750020e-02
2.642730e-02
2.659440e-02
2.695040e-02
2.749520e-02
2.822880e-02
2.424660e-02
2.690860e-02
2.920150e-02
3.112510e-02
3.267960e-02
2.550920e-02
2.753810e-02
2.974120e-02
3.211830e-02
3.466960e-02
2.659370e-02
2.816030e-02
3.019200e-02
3.268860e-02
3.565030e-02
2.750020e-02
2.877530e-02
3.055390e-02
3.283600e-02
3.562160e-02
2.822880e-02
2.938290e-02
3.082680e-02
3.256040e-02
3.458370e-02
3.267960e-02
3.794420e-02
4.238990e-02
4.601680e-02
4.882480e-02
3.466960e-02
4.041270e-02
4.524490e-02
4.916630e-02
5.217670e-02
3.565030e-02
4.138020e-02
4.622910e-02
5.019680e-02
5.328340e-02
3.562160e-02
4.084670e-02
4.534230e-02
4.910840e-02
5.214490e-02
3.458370e-02
3.881220e-02
4.258460e-02
4.590100e-02
4.876120e-02
4.882480e-02
4.765600e-02
4.635730e-02
4.492890e-02
4.337060e-02
5.217670e-02
5.124160e-02
4.986250e-02
4.803950e-02
4.577250e-02
5.328340e-02
5.264950e-02
5.137550e-02
4.946120e-02
4.690670e-02
5.214490e-02
5.187970e-02
5.089600e-02
4.919380e-02
4.677310e-02
4.876120e-02
4.893220e-02
4.842430e-02
4.723750e-02
4.537180e-02
4.337060e-02
3.984480e-02
3.662820e-02
3.372090e-02
3.112270e-02
4.577250e-02
4.183120e-02
3.830490e-02
3.519340e-02
3.249680e-02
4.690670e-02
4.289940e-02
3.933440e-02
3.621160e-02
3.353110e-02
4.677310e-02
4.304920e-02
3.971670e-02
3.677550e-02
3.422570e-02
4.537180e-02
4.228080e-02
3.945180e-02
3.688510e-02
3.458060e-02
3.112270e-02
2.934100e-02
2.764070e-02
2.602190e-02
2.448450e-02
3.249680e-02
3.059870e-02
2.884810e-02
2.724500e-02
2.578940e-02
3.353110e-02
3.158450e-02
2.983690e-02
2.828830e-02
2.693880e-02
3.422570e-02
3.229840e-02
3.060720e-02
2.915190e-02
2.793270e-02
3.458060e-02
3.274040e-02
3.115890e-02
2.983580e-02
2.877120e-02
2.448450e-02
2.550810e-02
2.589870e-02
2.565610e-02
2.478050e-02
2.578940e-02
2.624270e-02
2.630180e-02
2.596650e-02
2.523700e-02
2.693880e-02
2.689320e-02
2.666910e-02
2.626670e-02
2.568580e-02
2.793270e-02
2.745950e-02
2.700080e-02
2.655660e-02
2.612700e-02
2.877120e-02
2.794160e-02
2.729660e-02
2.683630e-02
2.656050e-02
2.600690e-02
2.604600e-02
2.608470e-02
2.612280e-02
2.616050e-02
2.630990e-02
2.637290e-02
2.643450e-02
2.649470e-02
2.655350e-02
2.659390e-02
2.667960e-02
2.676270e-02
2.684310e-02
2.692090e-02
2.685910e-02
2.696620e-02
2.706910e-02
2.716800e-02
2.726290e-02
2.710540e-02
2.723260e-02
2.735390e-02
2.746950e-02
2.757930e-02
2.616050e-02
2.608750e-02
2.605800e-02
2.607180e-02
2.612900e-02
2.655350e-02
2.650790e-02
2.649980e-02
2.652930e-02
2.659620e-02
2.692090e-02
2.690140e-02
2.691390e-02
2.695840e-02
2.703490e-02
2.726290e-02
2.726810e-02
2.730030e-02
2.735930e-02
2.744510e-02
2.757930e-02
2.760800e-02
2.765880e-02
2.773180e-02
2.782690e-02
2.612900e-02
2.604020e-02
2.606030e-02
2.618930e-02
2.642730e-02
2.659620e-02
2.655660e-02
2.660810e-02
2.675060e-02
2.698410e-02
2.703490e-02
2.703660e-02
2.711460e-02
2.726900e-02
2.749970e-02
2.744510e-02
2.748010e-02
2.757990e-02
2.774460e-02
2.797430e-02
2.782690e-02
2.788700e-02
2.800390e-02
2.817750e-02
2.840770e-02
2.642730e-02
2.659440e-02
2.695040e-02
2.749520e-02
2.822880e-02
2.698410e-02
2.722240e-02
2.761220e-02
2.815350e-02
2.884640e-02
2.749970e-02
2.778460e-02
2.819310e-02
2.872530e-02
2.938110e-02
2.797430e-02
2.828110e-02
2.869310e-02
2.921030e-02
2.983280e-02
2.840770e-02
2.871180e-02
2.911220e-02
2.960880e-02
3.020160e-02
2.822880e-02
2.938290e-02
3.082680e-02
3.256040e-02
3.458370e-02
2.884640e-02
2.996500e-02
3.126720e-02
3.275290e-02
3.442210e-02
2.938110e-02
3.045720e-02
3.164000e-02
3.292960e-02
3.432600e-02
2.983280e-02
3.085940e-02
3.194530e-02
3.309070e-02
3.429540e-02
3.020160e-02
3.117160e-02
3.218310e-02
3.323600e-02
3.433030e-02
3.458370e-02
3.881220e-02
4.258460e-02
4.590100e-02
4.876120e-02
3.442210e-02
3.770620e-02
4.067820e-02
4.333820e-02
4.568610e-02
3.432600e-02
3.685370e-02
3.917100e-02
4.127790e-02
4.317430e-02
3.429540e-02
3.625480e-02
3.806300e-02
3.972000e-02
4.122590e-02
3.433030e-02
3.590940e-02
3.735420e-02
3.866460e-02
3.984080e-02
4.876120e-02
4.893220e-02
4.842430e-02
4.723750e-02
4.537180e-02
4.568610e-02
4.608960e-02
4.591750e-02
4.516980e-02
4.384650e-02
4.317430e-02
4.370780e-02
4.375840e-02
4.332620e-02
4.241110e-02
4.122590e-02
4.178680e-02
4.194710e-02
4.170660e-02
4.106550e-02
3.984080e-02
4.032670e-02
4.048340e-02
4.031110e-02
3.980970e-02
4.537180e-02
4.228080e-02
3.945180e-02
3.688510e-02
3.458060e-02
4.384650e-02
4.133420e-02
3.897940e-02
3.678230e-02
3.474280e-02
4.241110e-02
4.039550e-02
3.845640e-02
3.659360e-02
3.480710e-02
4.106550e-02
3.946480e-02
3.788260e-02
3.631890e-02
3.477350e-02
3.980970e-02
3.854210e-02
3.725820e-02
3.595820e-02
3.464200e-02
3.458060e-02
3.274040e-02
3.115890e-02
2.983580e-02
2.877120e-02
3.474280e-02
3.303710e-02
3.155920e-02
3.030930e-02
2.928730e-02
3.480710e-02
3.323420e-02
3.185890e-02
3.068130e-02
2.970120e-02
3.477350e-02
3.333190e-02
3.205790e-02
3.095160e-02
3.001290e-02
3.464200e-02
3.333010e-02
3.215620e-02
3.112030e-02
3.022240e-02
2.877120e-02
2.794160e-02
2.729660e-02
2.683630e-02
2.656050e-02
2.928730e-02
2.842590e-02
2.774000e-02
2.722970e-02
2.689490e-02
2.970120e-02
2.883230e-02
2.812500e-02
2.757940e-02
2.719550e-02
3.001290e-02
2.916080e-02
2.845170e-02
2.788550e-02
2.746230e-02
3.022240e-02
2.941150e-02
2.872010e-02
2.814800e-02
2.769530e-02
2.710540e-02
2.723260e-02
2.735390e-02
2.746950e-02
2.757930e-02
2.733260e-02
2.747350e-02
2.760850e-02
2.773790e-02
2.786150e-02
2.754220e-02
2.769490e-02
2.784160e-02
2.798230e-02
2.811690e-02
2.773410e-02
2.789690e-02
2.805310e-02
2.820270e-02
2.834560e-02