<?xml version="1.0"?>
<VTKFile type="UnstructuredGrid" version="0.1" byte_order="LittleEndian" compressor="vtkZLibDataCompressor">
<UnstructuredGrid>
<Piece NumberOfPoints="2500" NumberOfCells="1600">
<Points>
<DataArray type="Float32" NumberOfComponents="3" format="ascii">
-3.630000e+00 0.000000e+00 0.000000e+00
-3.448500e+00 0.000000e+00 0.000000e+00
-3.267000e+00 0.000000e+00 0.000000e+00
-3.085500e+00 0.000000e+00 0.000000e+00
-2.904000e+00 0.000000e+00 0.000000e+00
-3.630000e+00 1.282500e-01 0.000000e+00
-3.448500e+00 1.282500e-01 0.000000e+00
-3.267000e+00 1.282500e-01 0.000000e+00
-3.085500e+00 1.282500e-01 0.000000e+00
-2.904000e+00 1.282500e-01 0.000000e+00
-3.630000e+00 2.565000e-01 0.000000e+00
-3.448500e+00 2.565000e-01 0.000000e+00
-3.267000e+00 2.565000e-01 0.000000e+00
-3.085500e+00 2.565000e-01 0.000000e+00
-2.904000e+00 2.565000e-01 0.000000e+00
-3.630000e+00 3.847500e-01 0.000000e+00
-3.448500e+00 3.847500e-01 0.000000e+00
-3.267000e+00 3.847500e-01 0.000000e+00
-3.085500e+00 3.847500e-01 0.000000e+00
-2.904000e+00 3.847500e-01 0.000000e+00
-3.630000e+00 5.130000e-01 0.000000e+00
-3.448500e+00 5.130000e-01 0.000000e+00
-3.267000e+00 5.130000e-01 0.000000e+00
-3.085500e+00 5.130000e-01 0.000000e+00
-2.904000e+00 5.130000e-01 0.000000e+00
-2.904000e+00 0.000000e+00 0.000000e+00
-2.722500e+00 0.000000e+00 0.000000e+00
-2.541000e+00 0.000000e+00 0.000000e+00
-2.359500e+00 0.000000e+00 0.000000e+00
-2.178000e+00 0.000000e+00 0.000000e+00
-2.904000e+00 1.282500e-01 0.000000e+00
-2.722500e+00 1.282500e-01 0.000000e+00
-2.541000e+00 1.282500e-01 0.000000e+00
-2.359500e+00 1.282500e-01 0.000000e+00
-2.178000e+00 1.282500e-01 0.000000e+00
-2.904000e+00 2.565000e-01 0.000000e+00
-2.722500e+00 2.565000e-01 0.000000e+00
-2.541000e+00 2.565000e-01 0.000000e+00
-2.359500e+00 2.565000e-01 0.000000e+00
-2.178000e+00 2.565000e-01 0.000000e+00
-2.904000e+00 3.847500e-01 0.000000e+00
-2.722500e+00 3.847500e-01 0.000000e+00
-2.541000e+00 3.847500e-01 0.000000e+00
-2.359500e+00 3.847500e-01 0.000000e+00
-2.178000e+00 3.847500e-01 0.000000e+00
-2.904000e+00 5.130000e-01 0.000000e+00
-2.722500e+00 5.130000e-01 0.000000e+00
-2.541000e+00 5.130000e-01 0.000000e+00
-2.359500e+00 5.130000e-01 0.000000e+00
-2.178000e+00 5.130000e-01 0.000000e+00
-2.178000e+00 0.000000e+00 0.000000e+00
-1.996500e+00 0.000000e+00 0.000000e+00
-1.815000e+00 0.000000e+00 0.000000e+00
-1.633500e+00 0.000000e+00 0.000000e+00
-1.452000e+00 0.000000e+00 0.000000e+00
-2.178000e+00 1.282500e-01 0.000000e+00
-1.996500e+00 1.282500e-01 0.000000e+00
-1.815000e+00 1.282500e-01 0.000000e+00
-1.633500e+00 1.282500e-01 0.000000e+00
-1.452000e+00 1.282500e-01 0.000000e+00
-2.178000e+00 2.565000e-01 0.000000e+00
-1.996500e+00 2.565000e-01 0.000000e+00
-1.815000e+00 2.565000e-01 0.000000e+00
-1.633500e+00 2.565000e-01 0.000000e+00
-1.452000e+00 2.565000e-01 0.000000e+00
-2.178000e+00 3.847500e-01 0.000000e+00
-1.996500e+00 3.847500e-01 0.000000e+00
-1.815000e+00 3.847500e-01 0.000000e+00
-1.633500e+00 3.847500e-01 0.000000e+00
-1.452000e+00 3.847500e-01 0.000000e+00
-2.178000e+00 5.130000e-01 0.000000e+00
-1.996500e+00 5.130000e-01 0.000000e+00
-1.815000e+00 5.130000e-01 0.000000e+00
-1.633500e+00 5.130000e-01 0.000000e+00
-1.452000e+00 5.130000e-01 0.000000e+00
-1.452000e+00 0.000000e+00 0.000000e+00
-1.270500e+00 0.000000e+00 0.000000e+00
-1.089000e+00 0.000000e+00 0.000000e+00
-9.075000e-01 0.000000e+00 0.000000e+00
-7.260000e-01 0.000000e+00 0.000000e+00
-1.452000e+00 1.282500e-01 0.000000e+00
-1.270500e+00 1.282500e-01 0.000000e+00
-1.089000e+00 1.282500e-01 0.000000e+00
-9.075000e-01 1.282500e-01 0.000000e+00
-7.260000e-01 1.282500e-01 0.000000e+00
-1.452000e+00 2.565000e-01 0.000000e+00
-1.270500e+00 2.565000e-01 0.000000e+00
-1.089000e+00 2.565000e-01 0.000000e+00
-9.075000e-01 2.565000e-01 0.000000e+00
-7.260000e-01 2.565000e-01 0.000000e+00
-1.452000e+00 3.847500e-01 0.000000e+00
-1.270500e+00 3.847500e-01 0.000000e+00
-1.089000e+00 3.847500e-01 0.000000e+00
-9.075000e-01 3.847500e-01 0.000000e+00
-7.260000e-01 3.847500e-01 0.000000e+00
-1.452000e+00 5.130000e-01 0.000000e+00
-1.270500e+00 5.130000e-01 0.000000e+00
-1.089000e+00 5.130000e-01 0.000000e+00
-9.075000e-01 5.130000e-01 0.000000e+00
-7.260000e-01 5.130000e-01 0.000000e+00
-7.260000e-01 0.000000e+00 0.000000e+00
-5.445000e-01 0.000000e+00 0.000000e+00
-3.630000e-01 0.000000e+00 0.000000e+00
-1.815000e-01 0.000000e+00 0.000000e+00
0.000000e+00 0.000000e+00 0.000000e+00
-7.260000e-01 1.282500e-01 0.000000e+00
-5.445000e-01 1.282500e-01 0.000000e+00
-3.630000e-01 1.282500e-01 0.000000e+00
-1.815000e-01 1.282500e-01 0.000000e+00
0.000000e+00 1.282500e-01 0.000000e+00
-7.260000e-01 2.565000e-01 0.000000e+00
-5.445000e-01 2.565000e-01 0.000000e+00
-3.630000e-01 2.565000e-01 0.000000e+00
-1.815000e-01 2.565000e-01 0.000000e+00
0.000000e+00 2.565000e-01 0.000000e+00
-7.260000e-01 3.847500e-01 0.000000e+00
-5.445000e-01 3.847500e-01 0.000000e+00
-3.630000e-01 3.847500e-01 0.000000e+00
-1.815000e-01 3.847500e-01 0.000000e+00
0.000000e+00 3.847500e-01 0.000000e+00
-7.260000e-01 5.130000e-01 0.000000e+00
-5.445000e-01 5.130000e-01 0.000000e+00
-3.630000e-01 5.130000e-01 0.000000e+00
-1.815000e-01 5.130000e-01 0.000000e+00
0.000000e+00 5.130000e-01 0.000000e+00
0.000000e+00 0.000000e+00 0.000000e+00
1.815000e-01 0.000000e+00 0.000000e+00
3.630000e-01 0.000000e+00 0.000000e+00
5.445000e-01 0.000000e+00 0.000000e+00
7.260000e-01 0.000000e+00 0.000000e+00
0.000000e+00 1.282500e-01 0.000000e+00
1.815000e-01 1.282500e-01 0.000000e+00
3.630000e-01 1.282500e-01 0.000000e+00
5.445000e-01 1.282500e-01 0.000000e+00
7.260000e-01 1.282500e-01 0.000000e+00
0.000000e+00 2.565000e-01 0.000000e+00
1.815000e-01 2.565000e-01 0.000000e+00
3.630000e-01 2.565000e-01 0.000000e+00
5.445000e-01 2.565000e-01 0.000000e+00
7.260000e-01 2.565000e-01 0.000000e+00
0.000000e+00 3.847500e-01 0.000000e+00
1.815000e-01 3.847500e-01 0.000000e+00
3.630000e-01 3.847500e-01 0.000000e+00
5.445000e-01 3.847500e-01 0.000000e+00
7.260000e-01 3.847500e-01 0.000000e+00
0.000000e+00 5.130000e-01 0.000000e+00
1.815000e-01 5.130000e-01 0.000000e+00
3.630000e-01 5.130000e-01 0.000000e+00
5.445000e-01 5.130000e-01 0.000000e+00
7.260000e-01 5.130000e-01 0.000000e+00
7.260000e-01 0.000000e+00 0.000000e+00
9.075000e-01 0.000000e+00 0.000000e+00
1.089000e+00 0.000000e+00 0.000000e+00
1.270500e+00 0.000000e+00 0.000000e+00
1.452000e+00 0.000000e+00 0.000000e+00
7.260000e-01 1.282500e-01 0.000000e+00
9.075000e-01 1.282500e-01 0.000000e+00
1.089000e+00 1.282500e-01 0.000000e+00
1.270500e+00 1.282500e-01 0.000000e+00
1.452000e+00 1.282500e-01 0.000000e+00
7.260000e-01 2.565000e-01 0.000000e+00
9.075000e-01 2.565000e-01 0.000000e+00
1.089000e+00 2.565000e-01 0.000000e+00
1.270500e+00 2.565000e-01 0.000000e+00
1.452000e+00 2.565000e-01 0.000000e+00
7.260000e-01 3.847500e-01 0.000000e+00
9.075000e-01 3.847500e-01 0.000000e+00
1.089000e+00 3.847500e-01 0.000000e+00
1.270500e+00 3.847500e-01 0.000000e+00
1.452000e+00 3.847500e-01 0.000000e+00
7.260000e-01 5.130000e-01 0.000000e+00
9.075000e-01 5.130000e-01 0.000000e+00
1.089000e+00 5.130000e-01 0.000000e+00
1.270500e+00 5.130000e-01 0.000000e+00
1.452000e+00 5.130000e-01 0.000000e+00
1.452000e+00 0.000000e+00 0.000000e+00
1.633500e+00 0.000000e+00 0.000000e+00
1.815000e+00 0.000000e+00 0.000000e+00
1.996500e+00 0.000000e+00 0.000000e+00
2.178000e+00 0.000000e+00 0.000000e+00
1.452000e+00 1.282500e-01 0.000000e+00
1.633500e+00 1.282500e-01 0.000000e+00
1.815000e+00 1.282500e-01 0.000000e+00
1.996500e+00 1.282500e-01 0.000000e+00
2.178000e+00 1.282500e-01 0.000000e+00
1.452000e+00 2.565000e-01 0.000000e+00
1.633500e+00 2.565000e-01 0.000000e+00
1.815000e+00 2.565000e-01 0.000000e+00
1.996500e+00 2.565000e-01 0.000000e+00
2.178000e+00 2.565000e-01 0.000000e+00
1.452000e+00 3.847500e-01 0.000000e+00
1.633500e+00 3.847500e-01 0.000000e+00
1.815000e+00 3.847500e-01 0.000000e+00
1.996500e+00 3.847500e-01 0.000000e+00
2.178000e+00 3.847500e-01 0.000000e+00
1.452000e+00 5.130000e-01 0.000000e+00
1.633500e+00 5.130000e-01 0.000000e+00
1.815000e+00 5.130000e-01 0.000000e+00
1.996500e+00 5.130000e-01 0.000000e+00
2.178000e+00 5.130000e-01 0.000000e+00
2.178000e+00 0.000000e+00 0.000000e+00
2.359500e+00 0.000000e+00 0.000000e+00
2.541000e+00 0.000000e+00 0.000000e+00
2.722500e+00 0.000000e+00 0.000000e+00
2.904000e+00 0.000000e+00 0.000000e+00
2.178000e+00 1.282500e-01 0.000000e+00
2.359500e+00 1.282500e-01 0.000000e+00
2.541000e+00 1.282500e-01 0.000000e+00
2.722500e+00 1.282500e-01 0.000000e+00
2.904000e+00 1.282500e-01 0.000000e+00
2.178000e+00 2.565000e-01 0.000000e+00
2.359500e+00 2.565000e-01 0.000000e+00
2.541000e+00 2.565000e-01 0.000000e+00
2.722500e+00 2.565000e-01 0.000000e+00
2.904000e+00 2.565000e-01 0.000000e+00
2.178000e+00 3.847500e-01 0.000000e+00
2.359500e+00 3.847500e-01 0.000000e+00
2.541000e+00 3.847500e-01 0.000000e+00
2.722500e+00 3.847500e-01 0.000000e+00
2.904000e+00 3.847500e-01 0.000000e+00
2.178000e+00 5.130000e-01 0.000000e+00
2.359500e+00 5.130000e-01 0.000000e+00
2.541000e+00 5.130000e-01 0.000000e+00
2.722500e+00 5.130000e-01 0.000000e+00
2.904000e+00 5.130000e-01 0.000000e+00
2.904000e+00 0.000000e+00 0.000000e+00
3.085500e+00 0.000000e+00 0.000000e+00
3.267000e+00 0.000000e+00 0.000000e+00
3.448500e+00 0.000000e+00 0.000000e+00
3.630000e+00 0.000000e+00 0.000000e+00
2.904000e+00 1.282500e-01 0.000000e+00
3.085500e+00 1.282500e-01 0.000000e+00
3.267000e+00 1.282500e-01 0.000000e+00
3.448500e+00 1.282500e-01 0.000000e+00
3.630000e+00 1.282500e-01 0.000000e+00
2.904000e+00 2.565000e-01 0.000000e+00
3.085500e+00 2.565000e-01 0.000000e+00
3.267000e+00 2.565000e-01 0.000000e+00
3.448500e+00 2.565000e-01 0.000000e+00
3.630000e+00 2.565000e-01 0.000000e+00
2.904000e+00 3.847500e-01 0.000000e+00
3.085500e+00 3.847500e-01 0.000000e+00
3.267000e+00 3.847500e-01 0.000000e+00
3.448500e+00 3.847500e-01 0.000000e+00
3.630000e+00 3.847500e-01 0.000000e+00
2.904000e+00 5.130000e-01 0.000000e+00
[...]
<PointData>
<DataArray type="Float32" Name="V1" format="ascii">
0.000000e+00
0.000000e+00
0.000000e+00
0.000000e+00
0.000000e+00
1.264110e-02
1.103840e-02
9.664260e-03
8.518710e-03
7.601750e-03
2.028400e-02
1.823270e-02
1.641270e-02
1.482400e-02
1.346660e-02
2.292870e-02
2.158290e-02
2.024530e-02
1.891590e-02
1.759460e-02
2.057510e-02
2.108900e-02
2.116200e-02
2.079430e-02
1.998580e-02
0.000000e+00
0.000000e+00
0.000000e+00
0.000000e+00
0.000000e+00
7.601750e-03
6.575650e-03
5.809090e-03
5.302080e-03
5.054610e-03
1.346660e-02
1.194330e-02
1.076620e-02
9.935270e-03
9.450470e-03
1.759460e-02
1.610310e-02
1.487140e-02
1.389960e-02
1.318760e-02
1.998580e-02
1.905490e-02
1.812460e-02
1.719500e-02
1.626590e-02
0.000000e+00
0.000000e+00
0.000000e+00
0.000000e+00
0.000000e+00
5.054610e-03
4.866570e-03
4.724680e-03
4.628940e-03
4.579350e-03
9.450470e-03
9.083880e-03
8.773640e-03
8.519750e-03
8.322210e-03
1.318760e-02
1.265190e-02
1.214690e-02
1.167240e-02
1.122860e-02
1.626590e-02
1.557070e-02
1.484440e-02
1.408700e-02
1.329840e-02
0.000000e+00
0.000000e+00
0.000000e+00
0.000000e+00
0.000000e+00
4.579350e-03
3.664210e-03
3.803400e-03
4.996900e-03
7.244730e-03
8.322210e-03
6.493000e-03
6.504910e-03
8.357940e-03
1.205210e-02
1.122860e-02
8.486360e-03
8.104540e-03
1.008310e-02
1.442210e-02
1.329840e-02
9.644290e-03
8.602290e-03
1.017250e-02
1.435480e-02
0.000000e+00
0.000000e+00
0.000000e+00
0.000000e+00
0.000000e+00
7.244730e-03
5.603120e-03
1.539430e-03
-4.946350e-03
-1.385420e-02
1.205210e-02
7.863060e-03
3.143830e-04
-1.059390e-02
-2.486190e-02
1.442210e-02
6.779820e-03
-3.675150e-03
-1.694280e-02
-3.302310e-02
1.435480e-02
2.353400e-03
-1.042920e-02
-2.399290e-02
-3.833780e-02
0.000000e+00
0.000000e+00
0.000000e+00
0.000000e+00
0.000000e+00
-1.385420e-02
-1.465680e-02
-1.559640e-02
-1.667310e-02
-1.788680e-02
-2.486190e-02
-2.504620e-02
-2.578200e-02
-2.706940e-02
-2.890840e-02
-3.302310e-02
-3.116820e-02
-3.055680e-02
-3.118900e-02
-3.306470e-02
-3.833780e-02
-3.302290e-02
-2.992090e-02
-2.903180e-02
-3.035570e-02
0.000000e+00
0.000000e+00
0.000000e+00
0.000000e+00
0.000000e+00
-1.788680e-02
-1.705980e-02
-1.502070e-02
-1.176960e-02
-7.306420e-03
-2.890840e-02
-2.726130e-02
-2.378800e-02
-1.848860e-02
-1.136300e-02
-3.306470e-02
-3.060450e-02
-2.630200e-02
-2.015700e-02
-1.216960e-02
-3.035570e-02
-2.708950e-02
-2.256260e-02
-1.677490e-02
-9.726420e-03
0.000000e+00
0.000000e+00
0.000000e+00
0.000000e+00
0.000000e+00
-7.306420e-03
-4.466910e-03
-2.002550e-03
8.667230e-05
1.800740e-03
-1.136300e-02
-6.719440e-03
-2.696040e-03
7.072190e-04
3.490350e-03
-1.216960e-02
-6.757580e-03
-2.080490e-03
1.861640e-03
5.068810e-03
-9.726420e-03
-4.581340e-03
-1.558850e-04
3.549940e-03
6.536130e-03
0.000000e+00
0.000000e+00
0.000000e+00
0.000000e+00
0.000000e+00
1.800740e-03
3.682590e-03
5.159210e-03
6.230580e-03
6.896730e-03
3.490350e-03
6.575830e-03
9.016620e-03
1.081270e-02
1.196410e-02
5.068810e-03
8.679720e-03
1.157230e-02
1.374640e-02
1.520220e-02
6.536130e-03
9.994260e-03
1.282610e-02
1.503160e-02
1.661090e-02
0.000000e+00
0.000000e+00
0.000000e+00
0.000000e+00
0.000000e+00
6.896730e-03
7.500080e-03
8.130310e-03
8.787400e-03
9.471370e-03
1.196410e-02
1.305890e-02
1.415630e-02
1.525650e-02
1.635930e-02
1.520220e-02
1.667640e-02
1.807810e-02
1.940730e-02
2.066390e-02
1.661090e-02
1.835260e-02
1.989560e-02
2.123970e-02
2.238500e-02
2.057510e-02
2.108900e-02
2.116200e-02
2.079430e-02
1.998580e-02
2.078850e-02
2.097560e-02
2.100030e-02
2.086260e-02
2.056260e-02
2.103660e-02
2.096270e-02
2.091210e-02
2.088480e-02
2.088080e-02
2.131930e-02
2.105020e-02
2.089740e-02
2.086080e-02
2.094040e-02
2.163650e-02
2.123830e-02
2.095640e-02
2.079070e-02
2.074140e-02
1.998580e-02
1.905490e-02
1.812460e-02
1.719500e-02
1.626590e-02
2.056260e-02
2.010510e-02
1.955110e-02
1.890030e-02
1.815300e-02
2.088080e-02
2.075120e-02
2.047990e-02
2.006700e-02
1.951230e-02
2.094040e-02
2.099300e-02
2.091120e-02
2.069480e-02
2.034400e-02
2.074140e-02
2.083070e-02
2.084490e-02
2.078400e-02
2.064790e-02
1.626590e-02
1.557070e-02
1.484440e-02
1.408700e-02
1.329840e-02
1.815300e-02
1.739220e-02
1.655200e-02
1.563250e-02
1.463360e-02
1.951230e-02
1.868340e-02
1.778660e-02
1.682190e-02
1.578940e-02
2.034400e-02
1.944430e-02
1.854810e-02
1.765530e-02
1.676600e-02
2.064790e-02
1.967490e-02
1.883640e-02
1.813250e-02
1.756320e-02
1.329840e-02
9.644290e-03
8.602290e-03
1.017250e-02
1.435480e-02
1.463360e-02
1.050380e-02
8.978840e-03
1.005870e-02
1.374330e-02
1.578940e-02
1.127560e-02
9.383940e-03
1.011440e-02
1.346700e-02
1.676600e-02
1.195970e-02
9.817600e-03
1.033960e-02
1.352580e-02
1.756320e-02
1.255610e-02
1.027980e-02
1.073440e-02
1.391980e-02
1.435480e-02
2.353400e-03
-1.042920e-02
-2.399290e-02
-3.833780e-02
1.374330e-02
-7.159780e-04
-1.422350e-02
-2.677930e-02
-3.838330e-02
1.346700e-02
-1.994990e-03
-1.541260e-02
-2.678570e-02
-3.611440e-02
1.352580e-02
-1.483640e-03
-1.399630e-02
-2.401210e-02
-3.153110e-02
1.391980e-02
8.180830e-04
-9.974680e-03
-1.845850e-02
-2.463340e-02
-3.833780e-02
-3.302290e-02
-2.992090e-02
-2.903180e-02
-3.035570e-02
-3.838330e-02
-3.159760e-02
-2.726880e-02
-2.539690e-02
-2.598200e-02
-3.611440e-02
-2.855190e-02
-2.338170e-02
-2.060370e-02
-2.021810e-02
-3.153110e-02
-2.388580e-02
-1.825950e-02
-1.465230e-02
-1.306410e-02
-2.463340e-02
-1.759930e-02
-1.190230e-02
-7.542520e-03
-4.519860e-03
-3.035570e-02
-2.708950e-02
-2.256260e-02
-1.677490e-02
-9.726420e-03
-2.598200e-02
-2.467660e-02
-2.131230e-02
-1.588910e-02
-8.407030e-03
-2.021810e-02
-2.040070e-02
-1.811080e-02
-1.334820e-02
-6.113010e-03
-1.306410e-02
-1.426180e-02
-1.295780e-02
-9.151990e-03
-2.844360e-03
-4.519860e-03
-6.259960e-03
-5.853530e-03
-3.300580e-03
1.398900e-03
-9.726420e-03
-4.581340e-03
-1.558850e-04
3.549940e-03
6.536130e-03
-8.407030e-03
-3.064040e-03
1.416240e-03
5.033820e-03
7.788700e-03
-6.113010e-03
-7.863440e-04
3.567250e-03
6.947790e-03
9.355260e-03
-2.844360e-03
2.251760e-03
6.297160e-03
9.291840e-03
1.123580e-02
1.398900e-03
6.050260e-03
9.605950e-03
1.206600e-02
1.343040e-02
6.536130e-03
9.994260e-03
1.282610e-02
1.503160e-02
1.661090e-02
7.788700e-03
1.114120e-02
1.386100e-02
1.594800e-02
1.740230e-02
9.355260e-03
1.243200e-02
1.490900e-02
1.678640e-02
1.806390e-02
1.123580e-02
1.386670e-02
1.597030e-02
1.754660e-02
1.859570e-02
1.343040e-02
1.544520e-02
1.704460e-02
1.822880e-02
1.899750e-02
1.661090e-02
1.835260e-02
1.989560e-02
2.123970e-02
2.238500e-02
1.740230e-02
1.920860e-02
2.079030e-02
2.214760e-02
2.328050e-02
1.806390e-02
1.988660e-02
2.145690e-02
2.277470e-02
2.384010e-02
1.859570e-02
2.038680e-02
2.189520e-02
2.312090e-02
2.406390e-02
1.899750e-02
2.070910e-02
2.210540e-02
2.318630e-02
2.395190e-02
2.163650e-02
2.123830e-02
2.095640e-02
2.079070e-02
2.074140e-02
2.197900e-02
2.159280e-02
2.130520e-02
2.111610e-02
2.102540e-02
2.233590e-02
2.198720e-02
2.171470e-02
2.151850e-02
2.139860e-02
2.270730e-02
2.242130e-02
2.218490e-02
2.199820e-02
2.186100e-02
2.309330e-02
2.289530e-02
2.271580e-02
2.255490e-02
2.241250e-02
2.074140e-02
2.083070e-02
2.084490e-02
2.078400e-02
2.064790e-02
2.102540e-02
2.097740e-02
2.094150e-02
2.091780e-02
2.090640e-02
2.139860e-02
2.123300e-02
2.114660e-02
2.113930e-02
2.121120e-02
2.186100e-02
2.159760e-02
2.146010e-02
2.144830e-02
2.156230e-02
2.241250e-02
2.207120e-02
2.188200e-02
2.184480e-02
2.195960e-02
2.064790e-02
1.967490e-02
1.883640e-02
1.813250e-02
1.756320e-02
2.090640e-02
1.973750e-02
1.895400e-02
1.855600e-02
1.854350e-02
2.121120e-02
1.989280e-02
1.916650e-02
1.903260e-02
1.949080e-02
2.156230e-02
2.014070e-02
1.947390e-02
1.956210e-02
2.040510e-02
2.195960e-02
2.048120e-02
1.987620e-02
2.014460e-02
2.128650e-02
1.756320e-02
1.255610e-02
1.027980e-02
1.073440e-02
1.391980e-02
1.854350e-02
1.365150e-02
1.144970e-02
1.193780e-02
1.511600e-02
1.949080e-02
1.497090e-02
1.298260e-02
1.352580e-02
1.660060e-02
2.040510e-02
1.651430e-02
1.487870e-02
1.549850e-02
1.837360e-02
2.128650e-02
1.828150e-02
1.713790e-02
1.785570e-02
2.043480e-02
1.391980e-02
8.180830e-04
-9.974680e-03
-1.845850e-02
-2.463340e-02
1.511600e-02
6.573780e-03
-1.209590e-03
-8.234080e-03
-1.449970e-02
1.660060e-02
1.260050e-02
7.824690e-03
2.273270e-03
-4.053780e-03
1.837360e-02
1.889820e-02
1.712810e-02
1.306350e-02
6.704260e-03
2.043480e-02
2.546680e-02
2.670080e-02
2.413670e-02
1.777440e-02
-2.463340e-02
-1.759930e-02
-1.190230e-02
-7.542520e-03
-4.519860e-03
-1.449970e-02
-1.016850e-02
-5.910520e-03
-1.725840e-03
2.385570e-03
-4.053780e-03
-1.901350e-03
1.316240e-03
5.598980e-03
1.094690e-02
6.704260e-03
7.202030e-03
9.777930e-03
1.443200e-02
2.116410e-02
1.777440e-02
1.714170e-02
1.947460e-02
2.477310e-02
3.303720e-02
-4.519860e-03
-6.259960e-03
-5.853530e-03
-3.300580e-03
1.398900e-03
2.385570e-03
9.488150e-04
9.805600e-04
2.480810e-03
5.449560e-03
1.094690e-02
9.493540e-03
8.805940e-03
8.884080e-03
9.727980e-03
2.116410e-02
1.937420e-02
1.762260e-02
1.590920e-02
1.423410e-02
3.303720e-02
3.059080e-02
2.743050e-02
2.355630e-02
1.896800e-02
1.398900e-03
6.050260e-03
9.605950e-03
1.206600e-02
1.343040e-02
5.449560e-03
9.881760e-03
1.311510e-02
1.514950e-02
1.598500e-02
9.727980e-03
1.370770e-02
1.648380e-02
1.805630e-02
1.842520e-02
1.423410e-02
1.752800e-02
1.971220e-02
2.078650e-02
2.075110e-02
1.896800e-02
2.134280e-02
2.280020e-02
2.334010e-02
2.296250e-02
1.343040e-02
1.544520e-02
1.704460e-02
1.822880e-02
1.899750e-02
1.598500e-02
1.716050e-02
1.813600e-02
1.891140e-02
1.948670e-02
1.842520e-02
1.883860e-02
1.924440e-02
1.964270e-02
2.003330e-02
2.075110e-02
2.047950e-02
2.037010e-02
2.042260e-02
2.063720e-02
2.296250e-02
2.208320e-02
2.151280e-02
2.125130e-02
2.129860e-02
1.899750e-02
2.070910e-02
2.210540e-02
2.318630e-02
2.395190e-02
1.948670e-02
2.122490e-02
2.255720e-02
2.348350e-02
2.400390e-02
2.003330e-02
2.176140e-02
2.300800e-02
2.377300e-02
2.405640e-02
2.063720e-02
2.231870e-02
2.345780e-02
2.405460e-02
2.410920e-02
2.129860e-02
2.289670e-02
2.390670e-02
2.432860e-02
2.416240e-02
2.309330e-02
2.289530e-02
2.271580e-02
2.255490e-02
2.241250e-02
2.348320e-02
2.331920e-02
2.317370e-02
2.304670e-02
2.293820e-02
2.386930e-02
2.373140e-02
2.361460e-02
2.351900e-02
2.344450e-02
2.425160e-02
2.413170e-02
2.403830e-02
2.397150e-02
2.393140e-02
2.463000e-02
2.452010e-02
2.444500e-02
2.440450e-02
2.439880e-02
2.241250e-02
2.207120e-02
2.188200e-02
2.184480e-02
2.195960e-02
2.293820e-02
2.258550e-02
2.238330e-02
2.233160e-02
2.243030e-02
2.344450e-02
2.309480e-02
2.289200e-02
2.283600e-02
2.292690e-02
2.393140e-02
2.359910e-02
2.340800e-02
2.335810e-02
2.344940e-02
2.439880e-02
2.409840e-02
2.393140e-02
2.389790e-02
2.399790e-02
2.195960e-02
2.048120e-02
1.987620e-02
2.014460e-02
2.128650e-02
2.243030e-02
2.113590e-02
2.060980e-02
2.085190e-02
2.186230e-02
2.292690e-02
2.185300e-02
2.142320e-02
2.163770e-02
2.249630e-02
2.344940e-02
2.263240e-02
2.231660e-02
2.250200e-02
2.318870e-02
2.399790e-02
2.347410e-02
2.328980e-02
2.344480e-02
2.393920e-02
2.128650e-02
1.828150e-02
1.713790e-02
1.785570e-02
2.043480e-02
2.186230e-02
1.984470e-02
1.919700e-02
1.991930e-02
2.201150e-02
2.249630e-02
2.126470e-02
2.100750e-02
2.172480e-02
2.341650e-02
2.318870e-02
2.254160e-02
2.256940e-02
2.327210e-02
2.464970e-02
2.393920e-02
2.367530e-02
2.388260e-02
2.456120e-02
2.571110e-02
2.043480e-02
2.546680e-02
2.670080e-02
2.413670e-02
1.777440e-02
2.201150e-02
2.972990e-02
3.390100e-02
3.452480e-02
3.160120e-02
2.341650e-02
3.237990e-02
3.841370e-02
4.151780e-02
4.169230e-02
2.464970e-02
3.341680e-02
4.023880e-02
4.511580e-02
4.804760e-02
2.571110e-02
3.284060e-02
3.937640e-02
4.531870e-02
5.066720e-02
1.777440e-02
1.714170e-02
1.947460e-02
2.477310e-02
3.303720e-02
3.160120e-02
3.157080e-02
3.374620e-02
3.812760e-02
4.471500e-02
4.169230e-02
4.256430e-02
4.473760e-02
4.821220e-02
5.298810e-02
4.804760e-02
5.012230e-02
5.244860e-02
5.502670e-02
5.785660e-02
5.066720e-02
5.424470e-02
5.687940e-02
5.857130e-02
5.932040e-02
3.303720e-02
3.059080e-02
2.743050e-02
2.355630e-02
1.896800e-02
4.471500e-02
3.969410e-02
3.439470e-02
2.881680e-02
2.296040e-02
5.298810e-02
4.610770e-02
3.939450e-02
3.284830e-02
2.646920e-02
5.785660e-02
4.983180e-02
4.242990e-02
3.565080e-02
2.949460e-02
5.932040e-02
5.086620e-02
4.350090e-02
3.722430e-02
3.203650e-02
1.896800e-02
2.134280e-02
2.280020e-02
2.334010e-02
2.296250e-02
2.296040e-02
2.452310e-02
2.534470e-02
2.542500e-02
2.476410e-02
2.646920e-02
2.733210e-02
2.759250e-02
2.725050e-02
2.630590e-02
2.949460e-02
2.976980e-02
2.954370e-02
2.881650e-02
2.758800e-02
3.203650e-02
3.183610e-02
3.119820e-02
3.012300e-02
2.861030e-02
2.296250e-02
2.208320e-02
2.151280e-02
2.125130e-02
2.129860e-02
2.476410e-02
2.355580e-02
2.271870e-02
2.225270e-02
2.215780e-02
2.630590e-02
2.485610e-02
2.382190e-02
2.320330e-02
2.300020e-02
2.758800e-02
2.598420e-02
2.482250e-02
2.410310e-02
2.382580e-02
2.861030e-02
2.693990e-02
2.572050e-02
2.495220e-02
2.463480e-02
2.129860e-02
2.289670e-02
2.390670e-02
2.432860e-02
2.416240e-02
2.215780e-02
2.346120e-02
2.426290e-02
2.456290e-02
2.436110e-02
2.300020e-02
2.401120e-02
2.460890e-02
2.479320e-02
2.456420e-02
2.382580e-02
2.454670e-02
2.494460e-02
2.501970e-02
2.477190e-02
2.463480e-02
2.506760e-02
2.527010e-02
2.524230e-02
2.498410e-02
2.463000e-02
2.452010e-02
2.444500e-02
2.440450e-02
2.439880e-02
2.499690e-02
2.491080e-02
2.485780e-02
2.483780e-02
2.485090e-02
2.534870e-02
2.528970e-02
2.526050e-02
2.526100e-02
2.529130e-02
2.568540e-02
2.565670e-02
2.565290e-02
2.567400e-02
2.572010e-02
2.600690e-02
2.601180e-02
2.603510e-02
2.607690e-02
2.613710e-02
2.439880e-02
2.409840e-02
2.393140e-02
2.389790e-02
2.399790e-02
2.485090e-02
2.459890e-02
2.446490e-02
2.444900e-02
2.455110e-02
2.529130e-02
2.508810e-02
2.498820e-02
2.499140e-02
2.509790e-02
2.572010e-02
2.556610e-02
2.550110e-02
2.552520e-02
2.563840e-02
2.613710e-02
2.603280e-02
2.600390e-02
2.605040e-02
2.617240e-02
2.399790e-02
2.347410e-02
2.328980e-02
2.344480e-02
2.393920e-02
2.455110e-02
2.421680e-02
2.415500e-02
2.436570e-02
2.484890e-02
2.509790e-02
2.491170e-02
2.494890e-02
2.520970e-02
2.569400e-02
2.563840e-02
2.555870e-02
2.567160e-02
2.597690e-02
2.647460e-02
2.617240e-02
2.615800e-02
2.632290e-02
2.666720e-02
2.719080e-02
2.393920e-02
2.367530e-02
2.388260e-02
2.456120e-02
2.571110e-02
2.484890e-02
2.487460e-02
2.527360e-02
2.604580e-02
2.719130e-02
2.569400e-02
2.600230e-02
2.658830e-02
2.745180e-02
2.859300e-02
2.647460e-02
2.705840e-02
2.782650e-02
2.877910e-02
2.991600e-02
2.719080e-02
2.804280e-02
2.898850e-02
3.002770e-02
3.116050e-02
2.571110e-02
3.284060e-02
3.937640e-02
4.531870e-02
5.066720e-02
2.719130e-02
3.302220e-02
3.860050e-02
4.392610e-02
4.899900e-02
2.859300e-02
3.332470e-02
3.801770e-02
4.267180e-02
4.728720e-02
2.991600e-02
3.374810e-02
3.762810e-02
4.155600e-02
4.553190e-02
3.116050e-02
3.429230e-02
3.743160e-02
4.057850e-02
4.373300e-02
5.066720e-02
5.424470e-02
5.687940e-02
5.857130e-02
5.932040e-02
4.899900e-02
5.286800e-02
5.554750e-02
5.703740e-02
5.733780e-02
4.728720e-02
5.108170e-02
5.361390e-02
5.488410e-02
5.489200e-02
4.553190e-02
4.888560e-02
5.107870e-02
5.211120e-02
5.198300e-02
4.373300e-02
4.627980e-02
4.794170e-02
4.871870e-02
4.861080e-02
5.932040e-02
5.086620e-02
4.350090e-02
3.722430e-02
3.203650e-02
5.733780e-02
5.028040e-02
4.407690e-02
3.872730e-02
3.423160e-02
5.489200e-02
4.924890e-02
4.420380e-02
3.975660e-02
3.590760e-02
5.198300e-02
4.777160e-02
4.388130e-02
4.031220e-02
3.706430e-02
4.861080e-02
4.584850e-02
4.310960e-02
4.039400e-02
3.770180e-02
3.203650e-02
3.183610e-02
3.119820e-02
3.012300e-02
2.861030e-02
3.423160e-02
3.328440e-02
3.213080e-02
3.077080e-02
2.920440e-02
3.590760e-02
3.436030e-02
3.280770e-02
3.125000e-02
2.968710e-02
3.706430e-02
3.506360e-02
3.322910e-02
3.156070e-02
3.005840e-02
3.770180e-02
3.539460e-02
3.339490e-02
3.170290e-02
3.031840e-02
2.861030e-02
2.693990e-02
2.572050e-02
2.495220e-02
2.463480e-02
2.920440e-02
2.774600e-02
2.663570e-02
2.587360e-02
2.545960e-02
2.968710e-02
2.843310e-02
2.743200e-02
2.668390e-02
2.618880e-02
3.005840e-02
2.900120e-02
2.810950e-02
2.738320e-02
2.682250e-02
3.031840e-02
2.945030e-02
2.866810e-02
2.797150e-02
2.736070e-02
2.463480e-02
2.506760e-02
2.527010e-02
2.524230e-02
2.498410e-02
2.545960e-02
2.556960e-02
2.556690e-02
2.545160e-02
2.522360e-02
2.618880e-02
2.601860e-02
2.584040e-02
2.565430e-02
2.546030e-02
2.682250e-02
2.641460e-02
2.609050e-02
2.585030e-02
2.569400e-02
2.736070e-02
2.675770e-02
2.631740e-02
2.603980e-02
2.592470e-02
2.600690e-02
2.601180e-02
2.603510e-02
2.607690e-02
2.613710e-02
2.630990e-02
2.634620e-02
2.639650e-02
2.646090e-02
2.653940e-02
2.659390e-02
2.665980e-02
2.673560e-02
2.682110e-02
2.691650e-02
2.685910e-02
2.695280e-02
2.705230e-02
2.715740e-02
2.726820e-02
2.710540e-02
2.722520e-02
2.734660e-02
2.746970e-02
2.759460e-02
2.613710e-02
2.603280e-02
2.600390e-02
2.605040e-02
2.617240e-02
2.653940e-02
2.647000e-02
2.647040e-02
2.654080e-02
2.668110e-02
2.691650e-02
2.687850e-02
2.690460e-02
2.699490e-02
2.714920e-02
2.726820e-02
2.725830e-02
2.730650e-02
2.741270e-02
2.757680e-02
2.759460e-02
2.760950e-02
2.767600e-02
2.779420e-02
2.796400e-02
2.617240e-02
2.615800e-02
2.632290e-02
2.666720e-02
2.719080e-02
2.668110e-02
2.673040e-02
2.693690e-02
2.730050e-02
2.782120e-02
2.714920e-02
2.725840e-02
2.750100e-02
2.787680e-02
2.838600e-02
2.757680e-02
2.774200e-02
2.801510e-02
2.839630e-02
2.888540e-02
2.796400e-02
2.818110e-02
2.847940e-02
2.885880e-02
2.931920e-02
2.719080e-02
2.804280e-02
2.898850e-02
3.002770e-02
3.116050e-02
2.782120e-02
2.873230e-02
2.973550e-02
3.083070e-02
3.201790e-02
2.838600e-02
2.929950e-02
3.030560e-02
3.140410e-02
3.259510e-02
2.888540e-02
2.974440e-02
3.069860e-02
3.174790e-02
3.289220e-02
2.931920e-02
3.006700e-02
3.091470e-02
3.186200e-02
3.290920e-02
3.116050e-02
3.429230e-02
3.743160e-02
4.057850e-02
4.373300e-02
3.201790e-02
3.466950e-02
3.729630e-02
3.989820e-02
4.247520e-02
3.259510e-02
3.483480e-02
3.702240e-02
3.915790e-02
4.124130e-02
3.289220e-02
3.478810e-02
3.660990e-02
3.835770e-02
4.003150e-02
3.290920e-02
3.452940e-02
3.605890e-02
3.749770e-02
3.884560e-02
4.373300e-02
4.627980e-02
4.794170e-02
4.871870e-02
4.861080e-02
4.247520e-02
4.448760e-02
4.578280e-02
4.636060e-02
4.622120e-02
4.124130e-02
4.283140e-02
4.384540e-02
4.428340e-02
4.414530e-02
4.003150e-02
4.131130e-02
4.212980e-02
4.248700e-02
4.238310e-02
3.884560e-02
3.992710e-02
4.063580e-02
4.097160e-02
4.093450e-02
4.861080e-02
4.584850e-02
4.310960e-02
4.039400e-02
3.770180e-02
4.622120e-02
4.402830e-02
4.183380e-02
3.963790e-02
3.744040e-02
4.414530e-02
4.242950e-02
4.068720e-02
3.891840e-02
3.712310e-02
4.238310e-02
4.105220e-02
3.966970e-02
3.823560e-02
3.674990e-02
4.093450e-02
3.989630e-02
3.878130e-02
3.758950e-02
3.632080e-02
3.770180e-02
3.539460e-02
3.339490e-02
3.170290e-02
3.031840e-02
3.744040e-02
3.539320e-02
3.358950e-02
3.202920e-02
3.071230e-02
3.712310e-02
3.531840e-02
3.370210e-02
3.227410e-02
3.103450e-02
3.674990e-02
3.517010e-02
3.373270e-02
3.243750e-02
3.128470e-02
3.632080e-02
3.494840e-02
3.368130e-02
3.251950e-02
3.146310e-02
3.031840e-02
2.945030e-02
2.866810e-02
2.797150e-02
2.736070e-02
3.071230e-02
2.983670e-02
2.904480e-02
2.833660e-02
2.771210e-02
3.103450e-02
3.015190e-02
2.935300e-02
2.863780e-02
2.800620e-02
3.128470e-02
3.039600e-02
2.959280e-02
2.887510e-02
2.824290e-02
3.146310e-02
3.056900e-02
2.976410e-02
2.904860e-02
2.842230e-02
2.736070e-02
2.675770e-02
2.631740e-02
2.603980e-02
2.592470e-02
2.771210e-02
2.710420e-02
2.663480e-02
2.630400e-02
2.611180e-02
2.800620e-02
2.740720e-02
2.692070e-02
2.654660e-02
2.628500e-02
2.824290e-02
2.766690e-02
2.717510e-02
2.676760e-02
2.644430e-02
2.842230e-02
2.788310e-02
2.739800e-02
2.696690e-02
2.658980e-02
2.710540e-02
2.722520e-02
2.734660e-02
2.746970e-02
2.759460e-02
2.733260e-02
2.746820e-02
2.760470e-02
2.774210e-02
2.788040e-02
2.754220e-02
2.769120e-02
2.784010e-02
2.798910e-02
2.813800e-02
2.773410e-02
2.789410e-02
2.805300e-02
2.821070e-02
2.836730e-02
2.790840e-02