<?xml version="1.0"?>
<VTKFile type="UnstructuredGrid" version="0.1" byte_order="LittleEndian" compressor="vtkZLibDataCompressor">
<UnstructuredGrid>
<Piece NumberOfPoints="2500" NumberOfCells="1600">
<Points>
<DataArray type="Float32" NumberOfComponents="3" format="ascii">
-3.630000e+00 0.000000e+00 0.000000e+00
-3.448500e+00 0.000000e+00 0.000000e+00
-3.267000e+00 0.000000e+00 0.000000e+00
-3.085500e+00 0.000000e+00 0.000000e+00
-2.904000e+00 0.000000e+00 0.000000e+00
-3.630000e+00 1.282500e-01 0.000000e+00
-3.448500e+00 1.282500e-01 0.000000e+00
-3.267000e+00 1.282500e-01 0.000000e+00
-3.085500e+00 1.282500e-01 0.000000e+00
-2.904000e+00 1.282500e-01 0.000000e+00
-3.630000e+00 2.565000e-01 0.000000e+00
-3.448500e+00 2.565000e-01 0.000000e+00
-3.267000e+00 2.565000e-01 0.000000e+00
-3.085500e+00 2.565000e-01 0.000000e+00
-2.904000e+00 2.565000e-01 0.000000e+00
-3.630000e+00 3.847500e-01 0.000000e+00
-3.448500e+00 3.847500e-01 0.000000e+00
-3.267000e+00 3.847500e-01 0.000000e+00
-3.085500e+00 3.847500e-01 0.000000e+00
-2.904000e+00 3.847500e-01 0.000000e+00
-3.630000e+00 5.130000e-01 0.000000e+00
-3.448500e+00 5.130000e-01 0.000000e+00
-3.267000e+00 5.130000e-01 0.000000e+00
-3.085500e+00 5.130000e-01 0.000000e+00
-2.904000e+00 5.130000e-01 0.000000e+00
-2.904000e+00 0.000000e+00 0.000000e+00
-2.722500e+00 0.000000e+00 0.000000e+00
-2.541000e+00 0.000000e+00 0.000000e+00
-2.359500e+00 0.000000e+00 0.000000e+00
-2.178000e+00 0.000000e+00 0.000000e+00
-2.904000e+00 1.282500e-01 0.000000e+00
-2.722500e+00 1.282500e-01 0.000000e+00
-2.541000e+00 1.282500e-01 0.000000e+00
-2.359500e+00 1.282500e-01 0.000000e+00
-2.178000e+00 1.282500e-01 0.000000e+00
-2.904000e+00 2.565000e-01 0.000000e+00
-2.722500e+00 2.565000e-01 0.000000e+00
-2.541000e+00 2.565000e-01 0.000000e+00
-2.359500e+00 2.565000e-01 0.000000e+00
-2.178000e+00 2.565000e-01 0.000000e+00
-2.904000e+00 3.847500e-01 0.000000e+00
-2.722500e+00 3.847500e-01 0.000000e+00
-2.541000e+00 3.847500e-01 0.000000e+00
-2.359500e+00 3.847500e-01 0.000000e+00
-2.178000e+00 3.847500e-01 0.000000e+00
-2.904000e+00 5.130000e-01 0.000000e+00
-2.722500e+00 5.130000e-01 0.000000e+00
-2.541000e+00 5.130000e-01 0.000000e+00
-2.359500e+00 5.130000e-01 0.000000e+00
-2.178000e+00 5.130000e-01 0.000000e+00
-2.178000e+00 0.000000e+00 0.000000e+00
-1.996500e+00 0.000000e+00 0.000000e+00
-1.815000e+00 0.000000e+00 0.000000e+00
-1.633500e+00 0.000000e+00 0.000000e+00
-1.452000e+00 0.000000e+00 0.000000e+00
-2.178000e+00 1.282500e-01 0.000000e+00
-1.996500e+00 1.282500e-01 0.000000e+00
-1.815000e+00 1.282500e-01 0.000000e+00
-1.633500e+00 1.282500e-01 0.000000e+00
-1.452000e+00 1.282500e-01 0.000000e+00
-2.178000e+00 2.565000e-01 0.000000e+00
-1.996500e+00 2.565000e-01 0.000000e+00
-1.815000e+00 2.565000e-01 0.000000e+00
-1.633500e+00 2.565000e-01 0.000000e+00
-1.452000e+00 2.565000e-01 0.000000e+00
-2.178000e+00 3.847500e-01 0.000000e+00
-1.996500e+00 3.847500e-01 0.000000e+00
-1.815000e+00 3.847500e-01 0.000000e+00
-1.633500e+00 3.847500e-01 0.000000e+00
-1.452000e+00 3.847500e-01 0.000000e+00
-2.178000e+00 5.130000e-01 0.000000e+00
-1.996500e+00 5.130000e-01 0.000000e+00
-1.815000e+00 5.130000e-01 0.000000e+00
-1.633500e+00 5.130000e-01 0.000000e+00
-1.452000e+00 5.130000e-01 0.000000e+00
-1.452000e+00 0.000000e+00 0.000000e+00
-1.270500e+00 0.000000e+00 0.000000e+00
-1.089000e+00 0.000000e+00 0.000000e+00
-9.075000e-01 0.000000e+00 0.000000e+00
-7.260000e-01 0.000000e+00 0.000000e+00
-1.452000e+00 1.282500e-01 0.000000e+00
-1.270500e+00 1.282500e-01 0.000000e+00
-1.089000e+00 1.282500e-01 0.000000e+00
-9.075000e-01 1.282500e-01 0.000000e+00
-7.260000e-01 1.282500e-01 0.000000e+00
-1.452000e+00 2.565000e-01 0.000000e+00
-1.270500e+00 2.565000e-01 0.000000e+00
-1.089000e+00 2.565000e-01 0.000000e+00
-9.075000e-01 2.565000e-01 0.000000e+00
-7.260000e-01 2.565000e-01 0.000000e+00
-1.452000e+00 3.847500e-01 0.000000e+00
-1.270500e+00 3.847500e-01 0.000000e+00
-1.089000e+00 3.847500e-01 0.000000e+00
-9.075000e-01 3.847500e-01 0.000000e+00
-7.260000e-01 3.847500e-01 0.000000e+00
-1.452000e+00 5.130000e-01 0.000000e+00
-1.270500e+00 5.130000e-01 0.000000e+00
-1.089000e+00 5.130000e-01 0.000000e+00
-9.075000e-01 5.130000e-01 0.000000e+00
-7.260000e-01 5.130000e-01 0.000000e+00
-7.260000e-01 0.000000e+00 0.000000e+00
-5.445000e-01 0.000000e+00 0.000000e+00
-3.630000e-01 0.000000e+00 0.000000e+00
-1.815000e-01 0.000000e+00 0.000000e+00
0.000000e+00 0.000000e+00 0.000000e+00
-7.260000e-01 1.282500e-01 0.000000e+00
-5.445000e-01 1.282500e-01 0.000000e+00
-3.630000e-01 1.282500e-01 0.000000e+00
-1.815000e-01 1.282500e-01 0.000000e+00
0.000000e+00 1.282500e-01 0.000000e+00
-7.260000e-01 2.565000e-01 0.000000e+00
-5.445000e-01 2.565000e-01 0.000000e+00
-3.630000e-01 2.565000e-01 0.000000e+00
-1.815000e-01 2.565000e-01 0.000000e+00
0.000000e+00 2.565000e-01 0.000000e+00
-7.260000e-01 3.847500e-01 0.000000e+00
-5.445000e-01 3.847500e-01 0.000000e+00
-3.630000e-01 3.847500e-01 0.000000e+00
-1.815000e-01 3.847500e-01 0.000000e+00
0.000000e+00 3.847500e-01 0.000000e+00
-7.260000e-01 5.130000e-01 0.000000e+00
-5.445000e-01 5.130000e-01 0.000000e+00
-3.630000e-01 5.130000e-01 0.000000e+00
-1.815000e-01 5.130000e-01 0.000000e+00
0.000000e+00 5.130000e-01 0.000000e+00
0.000000e+00 0.000000e+00 0.000000e+00
1.815000e-01 0.000000e+00 0.000000e+00
3.630000e-01 0.000000e+00 0.000000e+00
5.445000e-01 0.000000e+00 0.000000e+00
7.260000e-01 0.000000e+00 0.000000e+00
0.000000e+00 1.282500e-01 0.000000e+00
1.815000e-01 1.282500e-01 0.000000e+00
3.630000e-01 1.282500e-01 0.000000e+00
5.445000e-01 1.282500e-01 0.000000e+00
7.260000e-01 1.282500e-01 0.000000e+00
0.000000e+00 2.565000e-01 0.000000e+00
1.815000e-01 2.565000e-01 0.000000e+00
3.630000e-01 2.565000e-01 0.000000e+00
5.445000e-01 2.565000e-01 0.000000e+00
7.260000e-01 2.565000e-01 0.000000e+00
0.000000e+00 3.847500e-01 0.000000e+00
1.815000e-01 3.847500e-01 0.000000e+00
3.630000e-01 3.847500e-01 0.000000e+00
5.445000e-01 3.847500e-01 0.000000e+00
7.260000e-01 3.847500e-01 0.000000e+00
0.000000e+00 5.130000e-01 0.000000e+00
1.815000e-01 5.130000e-01 0.000000e+00
3.630000e-01 5.130000e-01 0.000000e+00
5.445000e-01 5.130000e-01 0.000000e+00
7.260000e-01 5.130000e-01 0.000000e+00
7.260000e-01 0.000000e+00 0.000000e+00
9.075000e-01 0.000000e+00 0.000000e+00
1.089000e+00 0.000000e+00 0.000000e+00
1.270500e+00 0.000000e+00 0.000000e+00
1.452000e+00 0.000000e+00 0.000000e+00
7.260000e-01 1.282500e-01 0.000000e+00
9.075000e-01 1.282500e-01 0.000000e+00
1.089000e+00 1.282500e-01 0.000000e+00
1.270500e+00 1.282500e-01 0.000000e+00
1.452000e+00 1.282500e-01 0.000000e+00
7.260000e-01 2.565000e-01 0.000000e+00
9.075000e-01 2.565000e-01 0.000000e+00
1.089000e+00 2.565000e-01 0.000000e+00
1.270500e+00 2.565000e-01 0.000000e+00
1.452000e+00 2.565000e-01 0.000000e+00
7.260000e-01 3.847500e-01 0.000000e+00
9.075000e-01 3.847500e-01 0.000000e+00
1.089000e+00 3.847500e-01 0.000000e+00
1.270500e+00 3.847500e-01 0.000000e+00
1.452000e+00 3.847500e-01 0.000000e+00
7.260000e-01 5.130000e-01 0.000000e+00
9.075000e-01 5.130000e-01 0.000000e+00
1.089000e+00 5.130000e-01 0.000000e+00
1.270500e+00 5.130000e-01 0.000000e+00
1.452000e+00 5.130000e-01 0.000000e+00
1.452000e+00 0.000000e+00 0.000000e+00
1.633500e+00 0.000000e+00 0.000000e+00
1.815000e+00 0.000000e+00 0.000000e+00
1.996500e+00 0.000000e+00 0.000000e+00
2.178000e+00 0.000000e+00 0.000000e+00
1.452000e+00 1.282500e-01 0.000000e+00
1.633500e+00 1.282500e-01 0.000000e+00
1.815000e+00 1.282500e-01 0.000000e+00
1.996500e+00 1.282500e-01 0.000000e+00
2.178000e+00 1.282500e-01 0.000000e+00
1.452000e+00 2.565000e-01 0.000000e+00
1.633500e+00 2.565000e-01 0.000000e+00
1.815000e+00 2.565000e-01 0.000000e+00
1.996500e+00 2.565000e-01 0.000000e+00
2.178000e+00 2.565000e-01 0.000000e+00
1.452000e+00 3.847500e-01 0.000000e+00
1.633500e+00 3.847500e-01 0.000000e+00
1.815000e+00 3.847500e-01 0.000000e+00
1.996500e+00 3.847500e-01 0.000000e+00
2.178000e+00 3.847500e-01 0.000000e+00
1.452000e+00 5.130000e-01 0.000000e+00
1.633500e+00 5.130000e-01 0.000000e+00
1.815000e+00 5.130000e-01 0.000000e+00
1.996500e+00 5.130000e-01 0.000000e+00
2.178000e+00 5.130000e-01 0.000000e+00
2.178000e+00 0.000000e+00 0.000000e+00
2.359500e+00 0.000000e+00 0.000000e+00
2.541000e+00 0.000000e+00 0.000000e+00
2.722500e+00 0.000000e+00 0.000000e+00
2.904000e+00 0.000000e+00 0.000000e+00
2.178000e+00 1.282500e-01 0.000000e+00
2.359500e+00 1.282500e-01 0.000000e+00
2.541000e+00 1.282500e-01 0.000000e+00
2.722500e+00 1.282500e-01 0.000000e+00
2.904000e+00 1.282500e-01 0.000000e+00
2.178000e+00 2.565000e-01 0.000000e+00
2.359500e+00 2.565000e-01 0.000000e+00
2.541000e+00 2.565000e-01 0.000000e+00
2.722500e+00 2.565000e-01 0.000000e+00
2.904000e+00 2.565000e-01 0.000000e+00
2.178000e+00 3.847500e-01 0.000000e+00
2.359500e+00 3.847500e-01 0.000000e+00
2.541000e+00 3.847500e-01 0.000000e+00
2.722500e+00 3.847500e-01 0.000000e+00
2.904000e+00 3.847500e-01 0.000000e+00
2.178000e+00 5.130000e-01 0.000000e+00
2.359500e+00 5.130000e-01 0.000000e+00
2.541000e+00 5.130000e-01 0.000000e+00
2.722500e+00 5.130000e-01 0.000000e+00
2.904000e+00 5.130000e-01 0.000000e+00
2.904000e+00 0.000000e+00 0.000000e+00
3.085500e+00 0.000000e+00 0.000000e+00
3.267000e+00 0.000000e+00 0.000000e+00
3.448500e+00 0.000000e+00 0.000000e+00
3.630000e+00 0.000000e+00 0.000000e+00
2.904000e+00 1.282500e-01 0.000000e+00
3.085500e+00 1.282500e-01 0.000000e+00
3.267000e+00 1.282500e-01 0.000000e+00
3.448500e+00 1.282500e-01 0.000000e+00
3.630000e+00 1.282500e-01 0.000000e+00
2.904000e+00 2.565000e-01 0.000000e+00
3.085500e+00 2.565000e-01 0.000000e+00
3.267000e+00 2.565000e-01 0.000000e+00
3.448500e+00 2.565000e-01 0.000000e+00
3.630000e+00 2.565000e-01 0.000000e+00
2.904000e+00 3.847500e-01 0.000000e+00
3.085500e+00 3.847500e-01 0.000000e+00
3.267000e+00 3.847500e-01 0.000000e+00
3.448500e+00 3.847500e-01 0.000000e+00
3.630000e+00 3.847500e-01 0.000000e+00
2.904000e+00 5.130000e-01 0.000000e+00
[...]
<PointData>
<DataArray type="Float32" Name="V1" format="ascii">
0.000000e+00
0.000000e+00
0.000000e+00
0.000000e+00
0.000000e+00
1.264110e-02
1.103460e-02
9.648490e-03
8.482860e-03
7.537690e-03
2.028400e-02
1.822790e-02
1.639050e-02
1.477180e-02
1.337180e-02
2.292870e-02
2.158000e-02
2.022600e-02
1.886680e-02
1.750240e-02
2.057510e-02
2.109080e-02
2.115510e-02
2.076790e-02
1.992940e-02
0.000000e+00
0.000000e+00
0.000000e+00
0.000000e+00
0.000000e+00
7.537690e-03
6.472520e-03
5.638520e-03
5.035690e-03
4.664040e-03
1.337180e-02
1.178580e-02
1.050770e-02
9.537320e-03
8.874820e-03
1.750240e-02
1.593990e-02
1.460740e-02
1.350490e-02
1.263230e-02
1.992940e-02
1.893480e-02
1.793780e-02
1.693840e-02
1.593650e-02
0.000000e+00
0.000000e+00
0.000000e+00
0.000000e+00
0.000000e+00
4.664040e-03
4.385010e-03
4.171540e-03
4.023640e-03
3.941290e-03
8.874820e-03
8.353220e-03
7.946060e-03
7.653340e-03
7.475070e-03
1.263230e-02
1.190460e-02
1.132350e-02
1.088910e-02
1.060130e-02
1.593650e-02
1.503920e-02
1.430400e-02
1.373100e-02
1.332000e-02
0.000000e+00
0.000000e+00
0.000000e+00
0.000000e+00
0.000000e+00
3.941290e-03
3.774260e-03
3.871760e-03
4.233790e-03
4.860360e-03
7.475070e-03
7.108470e-03
7.179150e-03
7.687110e-03
8.632340e-03
1.060130e-02
1.000260e-02
9.922190e-03
1.035990e-02
1.131590e-02
1.332000e-02
1.245680e-02
1.210090e-02
1.225230e-02
1.291110e-02
0.000000e+00
0.000000e+00
0.000000e+00
0.000000e+00
0.000000e+00
4.860360e-03
4.675710e-03
4.127010e-03
3.214270e-03
1.937490e-03
8.632340e-03
8.078780e-03
6.877270e-03
5.027810e-03
2.530380e-03
1.131590e-02
1.020920e-02
8.250800e-03
5.440610e-03
1.778680e-03
1.291110e-02
1.106710e-02
8.247580e-03
4.452680e-03
-3.176270e-04
0.000000e+00
0.000000e+00
0.000000e+00
0.000000e+00
0.000000e+00
1.937490e-03
6.125960e-04
-1.772280e-03
-5.217130e-03
-9.721960e-03
2.530380e-03
-1.349210e-04
-4.308790e-03
-9.991230e-03
-1.718220e-02
1.778680e-03
-2.242550e-03
-7.609540e-03
-1.432230e-02
-2.238080e-02
-3.176270e-04
-5.710300e-03
-1.167450e-02
-1.821030e-02
-2.531760e-02
0.000000e+00
0.000000e+00
0.000000e+00
0.000000e+00
0.000000e+00
-9.721960e-03
-1.053460e-02
-1.072490e-02
-1.029270e-02
-9.238150e-03
-1.718220e-02
-1.798940e-02
-1.791330e-02
-1.695410e-02
-1.511160e-02
-2.238080e-02
-2.236420e-02
-2.156520e-02
-1.998400e-02
-1.762040e-02
-2.531760e-02
-2.365900e-02
-2.168070e-02
-1.938250e-02
-1.676460e-02
0.000000e+00
0.000000e+00
0.000000e+00
0.000000e+00
0.000000e+00
-9.238150e-03
-8.914890e-03
-7.759010e-03
-5.770490e-03
-2.949340e-03
-1.511160e-02
-1.443080e-02
-1.242760e-02
-9.101910e-03
-4.453750e-03
-1.762040e-02
-1.654790e-02
-1.400580e-02
-9.994260e-03
-4.513230e-03
-1.676460e-02
-1.526590e-02
-1.249360e-02
-8.447530e-03
-3.127760e-03
0.000000e+00
0.000000e+00
0.000000e+00
0.000000e+00
0.000000e+00
-2.949340e-03
-9.006930e-04
8.899790e-04
2.422670e-03
3.697390e-03
-4.453750e-03
-9.915980e-04
2.019800e-03
4.580440e-03
6.690320e-03
-4.513230e-03
-2.727140e-04
3.389460e-03
6.473290e-03
8.978790e-03
-3.127760e-03
1.255960e-03
4.998960e-03
8.101240e-03
1.056280e-02
0.000000e+00
0.000000e+00
0.000000e+00
0.000000e+00
0.000000e+00
3.697390e-03
5.012860e-03
6.155390e-03
7.124970e-03
7.921610e-03
6.690320e-03
8.894490e-03
1.079970e-02
1.240580e-02
1.371300e-02
8.978790e-03
1.164490e-02
1.393280e-02
1.584260e-02
1.737420e-02
1.056280e-02
1.326400e-02
1.555490e-02
1.743520e-02
1.890520e-02
2.057510e-02
2.109080e-02
2.115510e-02
2.076790e-02
1.992940e-02
2.078850e-02
2.098060e-02
2.100450e-02
2.086040e-02
2.054820e-02
2.103660e-02
2.097130e-02
2.092530e-02
2.089860e-02
2.089120e-02
2.131930e-02
2.106300e-02
2.091740e-02
2.088250e-02
2.095830e-02
2.163650e-02
2.125570e-02
2.098090e-02
2.081210e-02
2.074950e-02
1.992940e-02
1.893480e-02
1.793780e-02
1.693840e-02
1.593650e-02
2.054820e-02
2.005890e-02
1.948960e-02
1.884020e-02
1.811090e-02
2.089120e-02
2.076590e-02
2.052200e-02
2.015930e-02
1.967780e-02
2.095830e-02
2.105600e-02
2.103500e-02
2.089540e-02
2.063720e-02
2.074950e-02
2.092900e-02
2.102870e-02
2.104870e-02
2.098900e-02
1.593650e-02
1.503920e-02
1.430400e-02
1.373100e-02
1.332000e-02
1.811090e-02
1.728980e-02
1.658460e-02
1.599540e-02
1.552220e-02
1.967780e-02
1.895960e-02
1.832430e-02
1.777190e-02
1.730240e-02
2.063720e-02
2.004860e-02
1.952300e-02
1.906030e-02
1.866060e-02
2.098900e-02
2.055680e-02
2.018080e-02
1.986080e-02
1.959700e-02
1.332000e-02
1.245680e-02
1.210090e-02
1.225230e-02
1.291110e-02
1.552220e-02
1.429040e-02
1.367300e-02
1.366970e-02
1.428070e-02
1.730240e-02
1.577030e-02
1.496060e-02
1.487330e-02
1.550830e-02
1.866060e-02
1.689650e-02
1.596400e-02
1.586310e-02
1.659380e-02
1.959700e-02
1.766890e-02
1.668290e-02
1.663900e-02
1.753730e-02
1.291110e-02
1.106710e-02
8.247580e-03
4.452680e-03
-3.176270e-04
1.428070e-02
1.169370e-02
8.220630e-03
3.861600e-03
-1.383430e-03
1.550830e-02
1.240210e-02
8.532780e-03
3.900250e-03
-1.495460e-03
1.659380e-02
1.319240e-02
9.184020e-03
4.568640e-03
-6.537290e-04
1.753730e-02
1.406450e-02
1.017440e-02
5.866770e-03
1.141770e-03
-3.176270e-04
-5.710300e-03
-1.167450e-02
-1.821030e-02
-2.531760e-02
-1.383430e-03
-6.399670e-03
-1.204360e-02
-1.831510e-02
-2.521430e-02
-1.495460e-03
-5.523490e-03
-1.048470e-02
-1.637920e-02
-2.320680e-02
-6.537290e-04
-3.081750e-03
-6.998030e-03
-1.240250e-02
-1.929530e-02
1.141770e-03
9.255350e-04
-1.583460e-03
-6.385220e-03
-1.347970e-02
-2.531760e-02
-2.365900e-02
-2.168070e-02
-1.938250e-02
-1.676460e-02
-2.521430e-02
-2.321270e-02
-2.097940e-02
-1.851440e-02
-1.581760e-02
-2.320680e-02
-2.124470e-02
-1.895220e-02
-1.632940e-02
-1.337620e-02
-1.929530e-02
-1.775500e-02
-1.559910e-02
-1.282750e-02
-9.440430e-03
-1.347970e-02
-1.274360e-02
-1.092000e-02
-8.008890e-03
-4.010290e-03
-1.676460e-02
-1.526590e-02
-1.249360e-02
-8.447530e-03
-3.127760e-03
-1.581760e-02
-1.500040e-02
-1.254780e-02
-8.459660e-03
-2.735990e-03
-1.337620e-02
-1.319310e-02
-1.118430e-02
-7.349820e-03
-1.689690e-03
-9.440430e-03
-9.843790e-03
-8.402980e-03
-5.118010e-03
1.112310e-05
-4.010290e-03
-4.952610e-03
-4.203930e-03
-1.764240e-03
2.366460e-03
-3.127760e-03
1.255960e-03
4.998960e-03
8.101240e-03
1.056280e-02
-2.735990e-03
2.085030e-03
6.095760e-03
9.296200e-03
1.168630e-02
-1.689690e-03
3.343380e-03
7.442130e-03
1.060650e-02
1.283660e-02
1.112310e-05
5.031020e-03
9.038070e-03
1.203230e-02
1.401370e-02
2.366460e-03
7.147930e-03
1.088360e-02
1.357340e-02
1.521740e-02
1.056280e-02
1.326400e-02
1.555490e-02
1.743520e-02
1.890520e-02
1.168630e-02
1.422590e-02
1.642910e-02
1.829580e-02
1.982620e-02
1.283660e-02
1.514910e-02
1.719850e-02
1.898470e-02
2.050780e-02
1.401370e-02
1.603380e-02
1.786320e-02
1.950190e-02
2.094990e-02
1.521740e-02
1.687970e-02
1.842300e-02
1.984730e-02
2.115260e-02
2.163650e-02
2.125570e-02
2.098090e-02
2.081210e-02
2.074950e-02
2.197900e-02
2.160130e-02
2.131280e-02
2.111350e-02
2.100340e-02
2.233590e-02
2.198480e-02
2.170370e-02
2.149260e-02
2.135160e-02
2.270730e-02
2.240610e-02
2.215350e-02
2.194950e-02
2.179400e-02
2.309330e-02
2.286530e-02
2.266230e-02
2.248410e-02
2.233070e-02
2.074950e-02
2.092900e-02
2.102870e-02
2.104870e-02
2.098900e-02
2.100340e-02
2.109430e-02
2.115890e-02
2.119730e-02
2.120950e-02
2.135160e-02
2.136270e-02
2.138650e-02
2.142310e-02
2.147260e-02
2.179400e-02
2.173420e-02
2.171160e-02
2.172620e-02
2.177810e-02
2.233070e-02
2.220880e-02
2.213410e-02
2.210660e-02
2.212630e-02
2.098900e-02
2.055680e-02
2.018080e-02
1.986080e-02
1.959700e-02
2.120950e-02
2.083590e-02
2.055030e-02
2.035250e-02
2.024260e-02
2.147260e-02
2.113300e-02
2.090980e-02
2.080300e-02
2.081260e-02
2.177810e-02
2.144810e-02
2.125950e-02
2.121250e-02
2.130700e-02
2.212630e-02
2.178110e-02
2.159930e-02
2.158090e-02
2.172580e-02
1.959700e-02
1.766890e-02
1.668290e-02
1.663900e-02
1.753730e-02
2.024260e-02
1.830200e-02
1.734930e-02
1.738430e-02
1.840720e-02
2.081260e-02
1.893740e-02
1.805080e-02
1.815260e-02
1.924280e-02
2.130700e-02
1.957520e-02
1.878750e-02
1.894380e-02
2.004420e-02
2.172580e-02
2.021520e-02
1.955930e-02
1.975790e-02
2.081120e-02
1.753730e-02
1.406450e-02
1.017440e-02
5.866770e-03
1.141770e-03
1.840720e-02
1.532100e-02
1.186480e-02
8.038710e-03
3.842650e-03
1.924280e-02
1.674630e-02
1.384460e-02
1.053790e-02
6.826140e-03
2.004420e-02
1.834040e-02
1.611380e-02
1.336440e-02
1.009230e-02
2.081120e-02
2.010330e-02
1.867230e-02
1.651820e-02
1.364100e-02
1.141770e-03
9.255350e-04
-1.583460e-03
-6.385220e-03
-1.347970e-02
3.842650e-03
5.964680e-03
5.149910e-03
1.398340e-03
-5.290020e-03
6.826140e-03
1.081780e-02
1.154480e-02
9.007100e-03
3.204780e-03
1.009230e-02
1.548480e-02
1.760110e-02
1.644110e-02
1.200470e-02
1.364100e-02
1.996590e-02
2.331890e-02
2.370020e-02
2.110970e-02
-1.347970e-02
-1.274360e-02
-1.092000e-02
-8.008890e-03
-4.010290e-03
-5.290020e-03
-5.993180e-03
-5.009770e-03
-2.339790e-03
2.016760e-03
3.204780e-03
1.538830e-03
1.902100e-03
4.294600e-03
8.716310e-03
1.200470e-02
9.852420e-03
9.815610e-03
1.189430e-02
1.608840e-02
2.110970e-02
1.894760e-02
1.873080e-02
2.045920e-02
2.413290e-02
-4.010290e-03
-4.952610e-03
-4.203930e-03
-1.764240e-03
2.366460e-03
2.016760e-03
8.385560e-04
1.028380e-03
2.586230e-03
5.512110e-03
8.716310e-03
7.225240e-03
6.801610e-03
7.445430e-03
9.156700e-03
1.608840e-02
1.420740e-02
1.311580e-02
1.281340e-02
1.330020e-02
2.413290e-02
2.178510e-02
1.997080e-02
1.869000e-02
1.794270e-02
2.366460e-03
7.147930e-03
1.088360e-02
1.357340e-02
1.521740e-02
5.512110e-03
9.786630e-03
1.305270e-02
1.531020e-02
1.655920e-02
9.156700e-03
1.275270e-02
1.541160e-02
1.713370e-02
1.791880e-02
1.330020e-02
1.604600e-02
1.796060e-02
1.904390e-02
1.929600e-02
1.794270e-02
1.966670e-02
2.069940e-02
2.104080e-02
2.069090e-02
1.521740e-02
1.687970e-02
1.842300e-02
1.984730e-02
2.115260e-02
1.655920e-02
1.800950e-02
1.931990e-02
2.049040e-02
2.152100e-02
1.791880e-02
1.915310e-02
2.023310e-02
2.115880e-02
2.193000e-02
1.929600e-02
2.031060e-02
2.116280e-02
2.185240e-02
2.237950e-02
2.069090e-02
2.148200e-02
2.210880e-02
2.257140e-02
2.286960e-02
2.309330e-02
2.286530e-02
2.266230e-02
2.248410e-02
2.233070e-02
2.348320e-02
2.330150e-02
2.313740e-02
2.299120e-02
2.286270e-02
2.386930e-02
2.373040e-02
2.360260e-02
2.348570e-02
2.337980e-02
2.425160e-02
2.415230e-02
2.405760e-02
2.396750e-02
2.388210e-02
2.463000e-02
2.456700e-02
2.450260e-02
2.443670e-02
2.436950e-02
2.233070e-02
2.220880e-02
2.213410e-02
2.210660e-02
2.212630e-02
2.286270e-02
2.273060e-02
2.263890e-02
2.258760e-02
2.257670e-02
2.337980e-02
2.324700e-02
2.314770e-02
2.308200e-02
2.304980e-02
2.388210e-02
2.375790e-02
2.366050e-02
2.358970e-02
2.354560e-02
2.436950e-02
2.426350e-02
2.417730e-02
2.411080e-02
2.406410e-02
2.212630e-02
2.178110e-02
2.159930e-02
2.158090e-02
2.172580e-02
2.257670e-02
2.225330e-02
2.207500e-02
2.204170e-02
2.215340e-02
2.304980e-02
2.275700e-02
2.259020e-02
2.254930e-02
2.263430e-02
2.354560e-02
2.329230e-02
2.314500e-02
2.310370e-02
2.316850e-02
2.406410e-02
2.385900e-02
2.373930e-02
2.370500e-02
2.375590e-02
2.172580e-02
2.021520e-02
1.955930e-02
1.975790e-02
2.081120e-02
2.215340e-02
2.100020e-02
2.049390e-02
2.063450e-02
2.142200e-02
2.263430e-02
2.180200e-02
2.144320e-02
2.155790e-02
2.214600e-02
2.316850e-02
2.262070e-02
2.240730e-02
2.252810e-02
2.298330e-02
2.375590e-02
2.345630e-02
2.338610e-02
2.354520e-02
2.393380e-02
2.081120e-02
2.010330e-02
1.867230e-02
1.651820e-02
1.364100e-02
2.142200e-02
2.168300e-02
2.117890e-02
1.990950e-02
1.787500e-02
2.214600e-02
2.302850e-02
2.326500e-02
2.285580e-02
2.180070e-02
2.298330e-02
2.413950e-02
2.493070e-02
2.535700e-02
2.541820e-02
2.393380e-02
2.501630e-02
2.617600e-02
2.741310e-02
2.872750e-02
1.364100e-02
1.996590e-02
2.331890e-02
2.370020e-02
2.110970e-02
1.787500e-02
2.386140e-02
2.769230e-02
2.936760e-02
2.888740e-02
2.180070e-02
2.745580e-02
3.158710e-02
3.419440e-02
3.527780e-02
2.541820e-02
3.074900e-02
3.500310e-02
3.818040e-02
4.028080e-02
2.872750e-02
3.374110e-02
3.794050e-02
4.132570e-02
4.389660e-02
2.110970e-02
1.894760e-02
1.873080e-02
2.045920e-02
2.413290e-02
2.888740e-02
2.743010e-02
2.727360e-02
2.841780e-02
3.086270e-02
3.527780e-02
3.449830e-02
3.447760e-02
3.521580e-02
3.671280e-02
4.028080e-02
4.015210e-02
4.034290e-02
4.085320e-02
4.168300e-02
4.389660e-02
4.439160e-02
4.486930e-02
4.533000e-02
4.577350e-02
2.413290e-02
2.178510e-02
1.997080e-02
1.869000e-02
1.794270e-02
3.086270e-02
2.815890e-02
2.584170e-02
2.391110e-02
2.236700e-02
3.671280e-02
3.373070e-02
3.099720e-02
2.851230e-02
2.627600e-02
4.168300e-02
3.850030e-02
3.543710e-02
3.249360e-02
2.966960e-02
4.577350e-02
4.246780e-02
3.916160e-02
3.585500e-02
3.254780e-02
1.794270e-02
1.966670e-02
2.069940e-02
2.104080e-02
2.069090e-02
2.236700e-02
2.304970e-02
2.322610e-02
2.289620e-02
2.206010e-02
2.627600e-02
2.605330e-02
2.549880e-02
2.461260e-02
2.339450e-02
2.966960e-02
2.867760e-02
2.751770e-02
2.618980e-02
2.469390e-02
3.254780e-02
3.092260e-02
2.928270e-02
2.762800e-02
2.595850e-02
2.069090e-02
2.148200e-02
2.210880e-02
2.257140e-02
2.286960e-02
2.206010e-02
2.267190e-02
2.310840e-02
2.336980e-02
2.345600e-02
2.339450e-02
2.381420e-02
2.405530e-02
2.411780e-02
2.400150e-02
2.469390e-02
2.490920e-02
2.494960e-02
2.481520e-02
2.450600e-02
2.595850e-02
2.595660e-02
2.579120e-02
2.546210e-02
2.496950e-02
2.463000e-02
2.456700e-02
2.450260e-02
2.443670e-02
2.436950e-02
2.499690e-02
2.496480e-02
2.492900e-02
2.488960e-02
2.484670e-02
2.534870e-02
2.534550e-02
2.533730e-02
2.532400e-02
2.530570e-02
2.568540e-02
2.570930e-02
2.572740e-02
2.573990e-02
2.574670e-02
2.600690e-02
2.605600e-02
2.609940e-02
2.613730e-02
2.616960e-02
2.436950e-02
2.426350e-02
2.417730e-02
2.411080e-02
2.406410e-02
2.484670e-02
2.474960e-02
2.467560e-02
2.462450e-02
2.459640e-02
2.530570e-02
2.521890e-02
2.515840e-02
2.512410e-02
2.511600e-02
2.574670e-02
2.567150e-02
2.562570e-02
2.560950e-02
2.562280e-02
2.616960e-02
2.610720e-02
2.607750e-02
2.608070e-02
2.611680e-02
2.406410e-02
2.385900e-02
2.373930e-02
2.370500e-02
2.375590e-02
2.459640e-02
2.441810e-02
2.432850e-02
2.432760e-02
2.441540e-02
2.511600e-02
2.496580e-02
2.490550e-02
2.493490e-02
2.505430e-02
2.562280e-02
2.550210e-02
2.547010e-02
2.552690e-02
2.567240e-02
2.611680e-02
2.602690e-02
2.602240e-02
2.610340e-02
2.626990e-02
2.375590e-02
2.345630e-02
2.338610e-02
2.354520e-02
2.393380e-02
2.441540e-02
2.421830e-02
2.425010e-02
2.451080e-02
2.500030e-02
2.505430e-02
2.494580e-02
2.505860e-02
2.539260e-02
2.594800e-02
2.567240e-02
2.563870e-02
2.581150e-02
2.619080e-02
2.677680e-02
2.626990e-02
2.629690e-02
2.650880e-02
2.690540e-02
2.748670e-02
2.393380e-02
2.501630e-02
2.617600e-02
2.741310e-02
2.872750e-02
2.500030e-02
2.590370e-02
2.712590e-02
2.866690e-02
3.052670e-02
2.594800e-02
2.675270e-02
2.798230e-02
2.963670e-02
3.171600e-02
2.677680e-02
2.756320e-02
2.874520e-02
3.032260e-02
3.229550e-02
2.748670e-02
2.833540e-02
2.941460e-02
3.072450e-02
3.226500e-02
2.872750e-02
3.374110e-02
3.794050e-02
4.132570e-02
4.389660e-02
3.052670e-02
3.571360e-02
4.015930e-02
4.386400e-02
4.682760e-02
3.171600e-02
3.674210e-02
4.115750e-02
4.496230e-02
4.815640e-02
3.229550e-02
3.682670e-02
4.093500e-02
4.462050e-02
4.788300e-02
3.226500e-02
3.596730e-02
3.949180e-02
4.283860e-02
4.600750e-02
4.389660e-02
4.439160e-02
4.486930e-02
4.533000e-02
4.577350e-02
4.682760e-02
4.781880e-02
4.848220e-02
4.881780e-02
4.882550e-02
4.815640e-02
4.951310e-02
5.030720e-02
5.053860e-02
5.020740e-02
4.788300e-02
4.947440e-02
5.034420e-02
5.049250e-02
4.991920e-02
4.600750e-02
4.770270e-02
4.859340e-02
4.867940e-02
4.796100e-02
4.577350e-02
4.246780e-02
3.916160e-02
3.585500e-02
3.254780e-02
4.882550e-02
4.512840e-02
4.149630e-02
3.792930e-02
3.442740e-02
5.020740e-02
4.643910e-02
4.277750e-02
3.922270e-02
3.577460e-02
4.991920e-02
4.640000e-02
4.300530e-02
3.973520e-02
3.658960e-02
4.796100e-02
4.501100e-02
4.217960e-02
3.946660e-02
3.687220e-02
3.254780e-02
3.092260e-02
2.928270e-02
2.762800e-02
2.595850e-02
3.442740e-02
3.245550e-02
3.059110e-02
2.883400e-02
2.718440e-02
3.577460e-02
3.359740e-02
3.161460e-02
2.982610e-02
2.823200e-02
3.658960e-02
3.434830e-02
3.235320e-02
3.060430e-02
2.910150e-02
3.687220e-02
3.470820e-02
3.280700e-02
3.116850e-02
2.979280e-02
2.595850e-02
2.595660e-02
2.579120e-02
2.546210e-02
2.496950e-02
2.718440e-02
2.684150e-02
2.644260e-02
2.598750e-02
2.547620e-02
2.823200e-02
2.761230e-02
2.702750e-02
2.647770e-02
2.596280e-02
2.910150e-02
2.826890e-02
2.754590e-02
2.693270e-02
2.642920e-02
2.979280e-02
2.881130e-02
2.799780e-02
2.735250e-02
2.687540e-02
2.600690e-02
2.605600e-02
2.609940e-02
2.613730e-02
2.616960e-02
2.630990e-02
2.638040e-02
2.644550e-02
2.650520e-02
2.655960e-02
2.659390e-02
2.668490e-02
2.677010e-02
2.684950e-02
2.692320e-02
2.685910e-02
2.696940e-02
2.707310e-02
2.717010e-02
2.726050e-02
2.710540e-02
2.723400e-02
2.735450e-02
2.746710e-02
2.757160e-02
2.616960e-02
2.610720e-02
2.607750e-02
2.608070e-02
2.611680e-02
2.655960e-02
2.652050e-02
2.651050e-02
2.652970e-02
2.657810e-02
2.692320e-02
2.690710e-02
2.691640e-02
2.695100e-02
2.701090e-02
2.726050e-02
2.726710e-02
2.729510e-02
2.734440e-02
2.741510e-02
2.757160e-02
2.760050e-02
2.764670e-02
2.771010e-02
2.779080e-02
2.611680e-02
2.602690e-02
2.602240e-02
2.610340e-02
2.626990e-02
2.657810e-02
2.652610e-02
2.654820e-02
2.664440e-02
2.681480e-02
2.701090e-02
2.699240e-02
2.703800e-02
2.714760e-02
2.732120e-02
2.741510e-02
2.742600e-02
2.749190e-02
2.761290e-02
2.778890e-02
2.779080e-02
2.782660e-02
2.790980e-02
2.804030e-02
2.821810e-02
2.626990e-02
2.629690e-02
2.650880e-02
2.690540e-02
2.748670e-02
2.681480e-02
2.690890e-02
2.715570e-02
2.755510e-02
2.810730e-02
2.732120e-02
2.746730e-02
2.773910e-02
2.813660e-02
2.865980e-02
2.778890e-02
2.797210e-02
2.825910e-02
2.864980e-02
2.914440e-02
2.821810e-02
2.842340e-02
2.871560e-02
2.909480e-02
2.956100e-02
2.748670e-02
2.833540e-02
2.941460e-02
3.072450e-02
3.226500e-02
2.810730e-02
2.896740e-02
2.998550e-02
3.116170e-02
3.249590e-02
2.865980e-02
2.951070e-02
3.046690e-02
3.152820e-02
3.269470e-02
2.914440e-02
2.996540e-02
3.085860e-02
3.182400e-02
3.286160e-02
2.956100e-02
3.033150e-02
3.116090e-02
3.204920e-02
3.299640e-02
3.226500e-02
3.596730e-02
3.949180e-02
4.283860e-02
4.600750e-02
3.249590e-02
3.540020e-02
3.820470e-02
4.090940e-02
4.351430e-02
3.269470e-02
3.495720e-02
3.716510e-02
3.931840e-02
4.141710e-02
3.286160e-02
3.463840e-02
3.637300e-02
3.806550e-02
3.971590e-02
3.299640e-02
3.444360e-02
3.582840e-02
3.715080e-02
3.841080e-02
4.600750e-02
4.770270e-02
4.859340e-02
4.867940e-02
4.796100e-02
4.351430e-02
4.505110e-02
4.592490e-02
4.613570e-02
4.568350e-02
4.141710e-02
4.277350e-02
4.359820e-02
4.389130e-02
4.365270e-02
3.971590e-02
4.086970e-02
4.161300e-02
4.194610e-02
4.186880e-02
3.841080e-02
3.933970e-02
3.996950e-02
4.030010e-02
4.033160e-02
4.796100e-02
4.501100e-02
4.217960e-02
3.946660e-02
3.687220e-02
4.568350e-02
4.340370e-02
4.116560e-02
3.896900e-02
3.681410e-02
4.365270e-02
4.193660e-02
4.019850e-02
3.843840e-02
3.665620e-02
4.186880e-02
4.060970e-02
3.927830e-02
3.787460e-02
3.639860e-02
4.033160e-02
3.942290e-02
3.840500e-02
3.727780e-02
3.604130e-02
3.687220e-02
3.470820e-02
3.280700e-02
3.116850e-02
2.979280e-02
3.681410e-02
3.485360e-02
3.311450e-02
3.159680e-02
3.030050e-02
3.665620e-02
3.488990e-02
3.330870e-02
3.191250e-02
3.070140e-02
3.639860e-02
3.481720e-02
3.338950e-02
3.211560e-02
3.099560e-02
3.604130e-02
3.463530e-02
3.335690e-02
3.220610e-02
3.118300e-02
2.979280e-02
2.881130e-02
2.799780e-02
2.735250e-02
2.687540e-02
3.030050e-02
2.929430e-02
2.845680e-02
2.778800e-02
2.728790e-02
3.070140e-02
2.969100e-02
2.884620e-02
2.816690e-02
2.765310e-02
3.099560e-02
3.000150e-02
2.916600e-02
2.848920e-02
2.797100e-02
3.118300e-02
3.022560e-02
2.941630e-02
2.875490e-02
2.824160e-02
2.710540e-02
2.723400e-02
2.735450e-02
2.746710e-02
2.757160e-02
2.733260e-02
2.747430e-02
2.760790e-02
2.773350e-02
2.785110e-02
2.754220e-02
2.769520e-02
2.784000e-02
2.797660e-02
2.810490e-02
2.773410e-02
2.789690e-02
2.805100e-02
2.819630e-02
2.833280e-02
2.790840e-02