<?xml version="1.0"?>
<VTKFile type="UnstructuredGrid" version="0.1" byte_order="LittleEndian" compressor="vtkZLibDataCompressor">
<UnstructuredGrid>
<Piece NumberOfPoints="2500" NumberOfCells="1600">
<Points>
<DataArray type="Float32" NumberOfComponents="3" format="ascii">
-3.630000e+00 0.000000e+00 0.000000e+00
-3.448500e+00 0.000000e+00 0.000000e+00
-3.267000e+00 0.000000e+00 0.000000e+00
-3.085500e+00 0.000000e+00 0.000000e+00
-2.904000e+00 0.000000e+00 0.000000e+00
-3.630000e+00 1.282500e-01 0.000000e+00
-3.448500e+00 1.282500e-01 0.000000e+00
-3.267000e+00 1.282500e-01 0.000000e+00
-3.085500e+00 1.282500e-01 0.000000e+00
-2.904000e+00 1.282500e-01 0.000000e+00
-3.630000e+00 2.565000e-01 0.000000e+00
-3.448500e+00 2.565000e-01 0.000000e+00
-3.267000e+00 2.565000e-01 0.000000e+00
-3.085500e+00 2.565000e-01 0.000000e+00
-2.904000e+00 2.565000e-01 0.000000e+00
-3.630000e+00 3.847500e-01 0.000000e+00
-3.448500e+00 3.847500e-01 0.000000e+00
-3.267000e+00 3.847500e-01 0.000000e+00
-3.085500e+00 3.847500e-01 0.000000e+00
-2.904000e+00 3.847500e-01 0.000000e+00
-3.630000e+00 5.130000e-01 0.000000e+00
-3.448500e+00 5.130000e-01 0.000000e+00
-3.267000e+00 5.130000e-01 0.000000e+00
-3.085500e+00 5.130000e-01 0.000000e+00
-2.904000e+00 5.130000e-01 0.000000e+00
-2.904000e+00 0.000000e+00 0.000000e+00
-2.722500e+00 0.000000e+00 0.000000e+00
-2.541000e+00 0.000000e+00 0.000000e+00
-2.359500e+00 0.000000e+00 0.000000e+00
-2.178000e+00 0.000000e+00 0.000000e+00
-2.904000e+00 1.282500e-01 0.000000e+00
-2.722500e+00 1.282500e-01 0.000000e+00
-2.541000e+00 1.282500e-01 0.000000e+00
-2.359500e+00 1.282500e-01 0.000000e+00
-2.178000e+00 1.282500e-01 0.000000e+00
-2.904000e+00 2.565000e-01 0.000000e+00
-2.722500e+00 2.565000e-01 0.000000e+00
-2.541000e+00 2.565000e-01 0.000000e+00
-2.359500e+00 2.565000e-01 0.000000e+00
-2.178000e+00 2.565000e-01 0.000000e+00
-2.904000e+00 3.847500e-01 0.000000e+00
-2.722500e+00 3.847500e-01 0.000000e+00
-2.541000e+00 3.847500e-01 0.000000e+00
-2.359500e+00 3.847500e-01 0.000000e+00
-2.178000e+00 3.847500e-01 0.000000e+00
-2.904000e+00 5.130000e-01 0.000000e+00
-2.722500e+00 5.130000e-01 0.000000e+00
-2.541000e+00 5.130000e-01 0.000000e+00
-2.359500e+00 5.130000e-01 0.000000e+00
-2.178000e+00 5.130000e-01 0.000000e+00
-2.178000e+00 0.000000e+00 0.000000e+00
-1.996500e+00 0.000000e+00 0.000000e+00
-1.815000e+00 0.000000e+00 0.000000e+00
-1.633500e+00 0.000000e+00 0.000000e+00
-1.452000e+00 0.000000e+00 0.000000e+00
-2.178000e+00 1.282500e-01 0.000000e+00
-1.996500e+00 1.282500e-01 0.000000e+00
-1.815000e+00 1.282500e-01 0.000000e+00
-1.633500e+00 1.282500e-01 0.000000e+00
-1.452000e+00 1.282500e-01 0.000000e+00
-2.178000e+00 2.565000e-01 0.000000e+00
-1.996500e+00 2.565000e-01 0.000000e+00
-1.815000e+00 2.565000e-01 0.000000e+00
-1.633500e+00 2.565000e-01 0.000000e+00
-1.452000e+00 2.565000e-01 0.000000e+00
-2.178000e+00 3.847500e-01 0.000000e+00
-1.996500e+00 3.847500e-01 0.000000e+00
-1.815000e+00 3.847500e-01 0.000000e+00
-1.633500e+00 3.847500e-01 0.000000e+00
-1.452000e+00 3.847500e-01 0.000000e+00
-2.178000e+00 5.130000e-01 0.000000e+00
-1.996500e+00 5.130000e-01 0.000000e+00
-1.815000e+00 5.130000e-01 0.000000e+00
-1.633500e+00 5.130000e-01 0.000000e+00
-1.452000e+00 5.130000e-01 0.000000e+00
-1.452000e+00 0.000000e+00 0.000000e+00
-1.270500e+00 0.000000e+00 0.000000e+00
-1.089000e+00 0.000000e+00 0.000000e+00
-9.075000e-01 0.000000e+00 0.000000e+00
-7.260000e-01 0.000000e+00 0.000000e+00
-1.452000e+00 1.282500e-01 0.000000e+00
-1.270500e+00 1.282500e-01 0.000000e+00
-1.089000e+00 1.282500e-01 0.000000e+00
-9.075000e-01 1.282500e-01 0.000000e+00
-7.260000e-01 1.282500e-01 0.000000e+00
-1.452000e+00 2.565000e-01 0.000000e+00
-1.270500e+00 2.565000e-01 0.000000e+00
-1.089000e+00 2.565000e-01 0.000000e+00
-9.075000e-01 2.565000e-01 0.000000e+00
-7.260000e-01 2.565000e-01 0.000000e+00
-1.452000e+00 3.847500e-01 0.000000e+00
-1.270500e+00 3.847500e-01 0.000000e+00
-1.089000e+00 3.847500e-01 0.000000e+00
-9.075000e-01 3.847500e-01 0.000000e+00
-7.260000e-01 3.847500e-01 0.000000e+00
-1.452000e+00 5.130000e-01 0.000000e+00
-1.270500e+00 5.130000e-01 0.000000e+00
-1.089000e+00 5.130000e-01 0.000000e+00
-9.075000e-01 5.130000e-01 0.000000e+00
-7.260000e-01 5.130000e-01 0.000000e+00
-7.260000e-01 0.000000e+00 0.000000e+00
-5.445000e-01 0.000000e+00 0.000000e+00
-3.630000e-01 0.000000e+00 0.000000e+00
-1.815000e-01 0.000000e+00 0.000000e+00
0.000000e+00 0.000000e+00 0.000000e+00
-7.260000e-01 1.282500e-01 0.000000e+00
-5.445000e-01 1.282500e-01 0.000000e+00
-3.630000e-01 1.282500e-01 0.000000e+00
-1.815000e-01 1.282500e-01 0.000000e+00
0.000000e+00 1.282500e-01 0.000000e+00
-7.260000e-01 2.565000e-01 0.000000e+00
-5.445000e-01 2.565000e-01 0.000000e+00
-3.630000e-01 2.565000e-01 0.000000e+00
-1.815000e-01 2.565000e-01 0.000000e+00
0.000000e+00 2.565000e-01 0.000000e+00
-7.260000e-01 3.847500e-01 0.000000e+00
-5.445000e-01 3.847500e-01 0.000000e+00
-3.630000e-01 3.847500e-01 0.000000e+00
-1.815000e-01 3.847500e-01 0.000000e+00
0.000000e+00 3.847500e-01 0.000000e+00
-7.260000e-01 5.130000e-01 0.000000e+00
-5.445000e-01 5.130000e-01 0.000000e+00
-3.630000e-01 5.130000e-01 0.000000e+00
-1.815000e-01 5.130000e-01 0.000000e+00
0.000000e+00 5.130000e-01 0.000000e+00
0.000000e+00 0.000000e+00 0.000000e+00
1.815000e-01 0.000000e+00 0.000000e+00
3.630000e-01 0.000000e+00 0.000000e+00
5.445000e-01 0.000000e+00 0.000000e+00
7.260000e-01 0.000000e+00 0.000000e+00
0.000000e+00 1.282500e-01 0.000000e+00
1.815000e-01 1.282500e-01 0.000000e+00
3.630000e-01 1.282500e-01 0.000000e+00
5.445000e-01 1.282500e-01 0.000000e+00
7.260000e-01 1.282500e-01 0.000000e+00
0.000000e+00 2.565000e-01 0.000000e+00
1.815000e-01 2.565000e-01 0.000000e+00
3.630000e-01 2.565000e-01 0.000000e+00
5.445000e-01 2.565000e-01 0.000000e+00
7.260000e-01 2.565000e-01 0.000000e+00
0.000000e+00 3.847500e-01 0.000000e+00
1.815000e-01 3.847500e-01 0.000000e+00
3.630000e-01 3.847500e-01 0.000000e+00
5.445000e-01 3.847500e-01 0.000000e+00
7.260000e-01 3.847500e-01 0.000000e+00
0.000000e+00 5.130000e-01 0.000000e+00
1.815000e-01 5.130000e-01 0.000000e+00
3.630000e-01 5.130000e-01 0.000000e+00
5.445000e-01 5.130000e-01 0.000000e+00
7.260000e-01 5.130000e-01 0.000000e+00
7.260000e-01 0.000000e+00 0.000000e+00
9.075000e-01 0.000000e+00 0.000000e+00
1.089000e+00 0.000000e+00 0.000000e+00
1.270500e+00 0.000000e+00 0.000000e+00
1.452000e+00 0.000000e+00 0.000000e+00
7.260000e-01 1.282500e-01 0.000000e+00
9.075000e-01 1.282500e-01 0.000000e+00
1.089000e+00 1.282500e-01 0.000000e+00
1.270500e+00 1.282500e-01 0.000000e+00
1.452000e+00 1.282500e-01 0.000000e+00
7.260000e-01 2.565000e-01 0.000000e+00
9.075000e-01 2.565000e-01 0.000000e+00
1.089000e+00 2.565000e-01 0.000000e+00
1.270500e+00 2.565000e-01 0.000000e+00
1.452000e+00 2.565000e-01 0.000000e+00
7.260000e-01 3.847500e-01 0.000000e+00
9.075000e-01 3.847500e-01 0.000000e+00
1.089000e+00 3.847500e-01 0.000000e+00
1.270500e+00 3.847500e-01 0.000000e+00
1.452000e+00 3.847500e-01 0.000000e+00
7.260000e-01 5.130000e-01 0.000000e+00
9.075000e-01 5.130000e-01 0.000000e+00
1.089000e+00 5.130000e-01 0.000000e+00
1.270500e+00 5.130000e-01 0.000000e+00
1.452000e+00 5.130000e-01 0.000000e+00
1.452000e+00 0.000000e+00 0.000000e+00
1.633500e+00 0.000000e+00 0.000000e+00
1.815000e+00 0.000000e+00 0.000000e+00
1.996500e+00 0.000000e+00 0.000000e+00
2.178000e+00 0.000000e+00 0.000000e+00
1.452000e+00 1.282500e-01 0.000000e+00
1.633500e+00 1.282500e-01 0.000000e+00
1.815000e+00 1.282500e-01 0.000000e+00
1.996500e+00 1.282500e-01 0.000000e+00
2.178000e+00 1.282500e-01 0.000000e+00
1.452000e+00 2.565000e-01 0.000000e+00
1.633500e+00 2.565000e-01 0.000000e+00
1.815000e+00 2.565000e-01 0.000000e+00
1.996500e+00 2.565000e-01 0.000000e+00
2.178000e+00 2.565000e-01 0.000000e+00
1.452000e+00 3.847500e-01 0.000000e+00
1.633500e+00 3.847500e-01 0.000000e+00
1.815000e+00 3.847500e-01 0.000000e+00
1.996500e+00 3.847500e-01 0.000000e+00
2.178000e+00 3.847500e-01 0.000000e+00
1.452000e+00 5.130000e-01 0.000000e+00
1.633500e+00 5.130000e-01 0.000000e+00
1.815000e+00 5.130000e-01 0.000000e+00
1.996500e+00 5.130000e-01 0.000000e+00
2.178000e+00 5.130000e-01 0.000000e+00
2.178000e+00 0.000000e+00 0.000000e+00
2.359500e+00 0.000000e+00 0.000000e+00
2.541000e+00 0.000000e+00 0.000000e+00
2.722500e+00 0.000000e+00 0.000000e+00
2.904000e+00 0.000000e+00 0.000000e+00
2.178000e+00 1.282500e-01 0.000000e+00
2.359500e+00 1.282500e-01 0.000000e+00
2.541000e+00 1.282500e-01 0.000000e+00
2.722500e+00 1.282500e-01 0.000000e+00
2.904000e+00 1.282500e-01 0.000000e+00
2.178000e+00 2.565000e-01 0.000000e+00
2.359500e+00 2.565000e-01 0.000000e+00
2.541000e+00 2.565000e-01 0.000000e+00
2.722500e+00 2.565000e-01 0.000000e+00
2.904000e+00 2.565000e-01 0.000000e+00
2.178000e+00 3.847500e-01 0.000000e+00
2.359500e+00 3.847500e-01 0.000000e+00
2.541000e+00 3.847500e-01 0.000000e+00
2.722500e+00 3.847500e-01 0.000000e+00
2.904000e+00 3.847500e-01 0.000000e+00
2.178000e+00 5.130000e-01 0.000000e+00
2.359500e+00 5.130000e-01 0.000000e+00
2.541000e+00 5.130000e-01 0.000000e+00
2.722500e+00 5.130000e-01 0.000000e+00
2.904000e+00 5.130000e-01 0.000000e+00
2.904000e+00 0.000000e+00 0.000000e+00
3.085500e+00 0.000000e+00 0.000000e+00
3.267000e+00 0.000000e+00 0.000000e+00
3.448500e+00 0.000000e+00 0.000000e+00
3.630000e+00 0.000000e+00 0.000000e+00
2.904000e+00 1.282500e-01 0.000000e+00
3.085500e+00 1.282500e-01 0.000000e+00
3.267000e+00 1.282500e-01 0.000000e+00
3.448500e+00 1.282500e-01 0.000000e+00
3.630000e+00 1.282500e-01 0.000000e+00
2.904000e+00 2.565000e-01 0.000000e+00
3.085500e+00 2.565000e-01 0.000000e+00
3.267000e+00 2.565000e-01 0.000000e+00
3.448500e+00 2.565000e-01 0.000000e+00
3.630000e+00 2.565000e-01 0.000000e+00
2.904000e+00 3.847500e-01 0.000000e+00
3.085500e+00 3.847500e-01 0.000000e+00
3.267000e+00 3.847500e-01 0.000000e+00
3.448500e+00 3.847500e-01 0.000000e+00
3.630000e+00 3.847500e-01 0.000000e+00
2.904000e+00 5.130000e-01 0.000000e+00
[...]
<PointData>
<DataArray type="Float32" Name="V1" format="ascii">
0.000000e+00
0.000000e+00
0.000000e+00
0.000000e+00
0.000000e+00
1.264110e-02
1.103210e-02
9.683130e-03
8.594290e-03
7.765540e-03
2.028400e-02
1.822300e-02
1.643880e-02
1.493160e-02
1.370110e-02
2.292870e-02
2.157270e-02
2.026710e-02
1.901180e-02
1.780680e-02
2.057510e-02
2.108130e-02
2.116800e-02
2.083500e-02
2.008250e-02
0.000000e+00
0.000000e+00
0.000000e+00
0.000000e+00
0.000000e+00
7.765540e-03
6.778560e-03
6.095420e-03
5.716130e-03
5.640690e-03
1.370110e-02
1.220940e-02
1.112670e-02
1.045310e-02
1.018860e-02
1.780680e-02
1.629250e-02
1.509390e-02
1.421090e-02
1.364360e-02
2.008250e-02
1.902790e-02
1.799700e-02
1.698960e-02
1.600590e-02
0.000000e+00
0.000000e+00
0.000000e+00
0.000000e+00
0.000000e+00
5.640690e-03
5.715360e-03
5.732150e-03
5.691060e-03
5.592080e-03
1.018860e-02
1.020350e-02
1.007710e-02
9.809340e-03
9.400230e-03
1.364360e-02
1.346440e-02
1.303480e-02
1.235480e-02
1.142440e-02
1.600590e-02
1.549810e-02
1.460530e-02
1.332750e-02
1.166470e-02
0.000000e+00
0.000000e+00
0.000000e+00
0.000000e+00
0.000000e+00
5.592080e-03
4.000280e-03
3.763580e-03
4.881990e-03
7.355510e-03
9.400230e-03
6.598850e-03
5.825060e-03
7.078850e-03
1.036020e-02
1.142440e-02
7.795710e-03
6.184420e-03
6.590570e-03
9.014160e-03
1.166470e-02
7.590850e-03
4.841670e-03
3.417150e-03
3.317310e-03
0.000000e+00
0.000000e+00
0.000000e+00
0.000000e+00
0.000000e+00
7.355510e-03
1.735090e-03
-6.236870e-03
-1.656040e-02
-2.923540e-02
1.036020e-02
-7.500590e-04
-1.430000e-02
-3.028960e-02
-4.871880e-02
9.014160e-03
-7.455440e-03
-2.418940e-02
-4.118770e-02
-5.845030e-02
3.317310e-03
-1.838100e-02
-3.590500e-02
-4.925470e-02
-5.842990e-02
0.000000e+00
0.000000e+00
0.000000e+00
0.000000e+00
0.000000e+00
-2.923540e-02
-2.741330e-02
-2.546070e-02
-2.337760e-02
-2.116380e-02
-4.871880e-02
-4.486190e-02
-4.088720e-02
-3.679460e-02
-3.258420e-02
-5.845030e-02
-5.234580e-02
-4.627940e-02
-4.025120e-02
-3.426120e-02
-5.842990e-02
-4.986480e-02
-4.163730e-02
-3.374730e-02
-2.619480e-02
0.000000e+00
0.000000e+00
0.000000e+00
0.000000e+00
0.000000e+00
-2.116380e-02
-1.823250e-02
-1.480310e-02
-1.087570e-02
-6.450390e-03
-3.258420e-02
-2.808960e-02
-2.279560e-02
-1.670230e-02
-9.809730e-03
-3.426120e-02
-2.957130e-02
-2.397740e-02
-1.747970e-02
-1.007800e-02
-2.619480e-02
-2.267760e-02
-1.834870e-02
-1.320790e-02
-7.255280e-03
0.000000e+00
0.000000e+00
0.000000e+00
0.000000e+00
0.000000e+00
-6.450390e-03
-2.353510e-03
7.676570e-04
2.913120e-03
4.082880e-03
-9.809730e-03
-3.286600e-03
1.725300e-03
5.225990e-03
7.215450e-03
-1.007800e-02
-2.799270e-03
2.872940e-03
6.938600e-03
9.397710e-03
-7.255280e-03
-8.915050e-04
4.210570e-03
8.050960e-03
1.062960e-02
0.000000e+00
0.000000e+00
0.000000e+00
0.000000e+00
0.000000e+00
4.082880e-03
5.439150e-03
6.546900e-03
7.406120e-03
8.016820e-03
7.215450e-03
9.448210e-03
1.127700e-02
1.270190e-02
1.372290e-02
9.397710e-03
1.202720e-02
1.419040e-02
1.588750e-02
1.711830e-02
1.062960e-02
1.317600e-02
1.528710e-02
1.696270e-02
1.820290e-02
0.000000e+00
0.000000e+00
0.000000e+00
0.000000e+00
0.000000e+00
8.016820e-03
8.617610e-03
9.234150e-03
9.866410e-03
1.051440e-02
1.372290e-02
1.484070e-02
1.592520e-02
1.697650e-02
1.799450e-02
1.711830e-02
1.866920e-02
2.007320e-02
2.133020e-02
2.244020e-02
1.820290e-02
2.010320e-02
2.167810e-02
2.292750e-02
2.385150e-02
2.057510e-02
2.108130e-02
2.116800e-02
2.083500e-02
2.008250e-02
2.078850e-02
2.097300e-02
2.100250e-02
2.087690e-02
2.059620e-02
2.103660e-02
2.096180e-02
2.090760e-02
2.087380e-02
2.086070e-02
2.131930e-02
2.104770e-02
2.088320e-02
2.082590e-02
2.087580e-02
2.163650e-02
2.123060e-02
2.092950e-02
2.073310e-02
2.064150e-02
2.008250e-02
1.902790e-02
1.799700e-02
1.698960e-02
1.600590e-02
2.059620e-02
1.993550e-02
1.918920e-02
1.835720e-02
1.743970e-02
2.086070e-02
2.047130e-02
1.994820e-02
1.929120e-02
1.850050e-02
2.087580e-02
2.063530e-02
2.027390e-02
1.979160e-02
1.918830e-02
2.064150e-02
2.042740e-02
2.016630e-02
1.985820e-02
1.950320e-02
1.600590e-02
1.549810e-02
1.460530e-02
1.332750e-02
1.166470e-02
1.743970e-02
1.625890e-02
1.498120e-02
1.360670e-02
1.213540e-02
1.850050e-02
1.666300e-02
1.513370e-02
1.391240e-02
1.299930e-02
1.918830e-02
1.671060e-02
1.506270e-02
1.424460e-02
1.425650e-02
1.950320e-02
1.640150e-02
1.476820e-02
1.460340e-02
1.590690e-02
1.166470e-02
7.590850e-03
4.841670e-03
3.417150e-03
3.317310e-03
1.213540e-02
7.561180e-03
3.709150e-03
5.793120e-04
-1.828350e-03
1.299930e-02
7.807400e-03
3.083210e-03
-1.173250e-03
-4.961980e-03
1.425650e-02
8.329510e-03
2.963820e-03
-1.840540e-03
-6.083590e-03
1.590690e-02
9.127510e-03
3.351010e-03
-1.422550e-03
-5.193190e-03
3.317310e-03
-1.838100e-02
-3.590500e-02
-4.925470e-02
-5.842990e-02
-1.828350e-03
-2.282740e-02
-3.927010e-02
-5.115630e-02
-5.848610e-02
-4.961980e-03
-2.323440e-02
-3.715540e-02
-4.672510e-02
-5.194340e-02
-6.083590e-03
-1.960190e-02
-2.956100e-02
-3.596100e-02
-3.880190e-02
-5.193190e-03
-1.192990e-02
-1.648680e-02
-1.886400e-02
-1.906150e-02
-5.842990e-02
-4.986480e-02
-4.163730e-02
-3.374730e-02
-2.619480e-02
-5.848610e-02
-5.016820e-02
-4.122690e-02
-3.166200e-02
-2.147350e-02
-5.194340e-02
-4.472310e-02
-3.617360e-02
-2.629510e-02
-1.508760e-02
-3.880190e-02
-3.352930e-02
-2.647760e-02
-1.764680e-02
-7.036850e-03
-1.906150e-02
-1.658700e-02
-1.213880e-02
-5.716950e-03
2.678620e-03
-2.619480e-02
-2.267760e-02
-1.834870e-02
-1.320790e-02
-7.255280e-03
-2.147350e-02
-1.902900e-02
-1.561630e-02
-1.123540e-02
-5.886340e-03
-1.508760e-02
-1.343000e-02
-1.092760e-02
-7.580250e-03
-3.388070e-03
-7.036850e-03
-5.880670e-03
-4.282540e-03
-2.242470e-03
2.395420e-04
2.678620e-03
3.619000e-03
4.318770e-03
4.777940e-03
4.996490e-03
-7.255280e-03
-8.915050e-04
4.210570e-03
8.050960e-03
1.062960e-02
-5.886340e-03
9.342400e-04
6.191490e-03
9.885400e-03
1.201600e-02
-3.388070e-03
3.375050e-03
8.429560e-03
1.177550e-02
1.341280e-02
2.395420e-04
6.430910e-03
1.092480e-02
1.372120e-02
1.482010e-02
4.996490e-03
1.010180e-02
1.367720e-02
1.572250e-02
1.623780e-02
1.062960e-02
1.317600e-02
1.528710e-02
1.696270e-02
1.820290e-02
1.201600e-02
1.427890e-02
1.616300e-02
1.766840e-02
1.879490e-02
1.341280e-02
1.536760e-02
1.700510e-02
1.832550e-02
1.932870e-02
1.482010e-02
1.644200e-02
1.781340e-02
1.893420e-02
1.980430e-02
1.623780e-02
1.750230e-02
1.858780e-02
1.949430e-02
2.022180e-02
1.820290e-02
2.010320e-02
2.167810e-02
2.292750e-02
2.385150e-02
1.879490e-02
2.076720e-02
2.237860e-02
2.362910e-02
2.451890e-02
1.932870e-02
2.129820e-02
2.288000e-02
2.407400e-02
2.488030e-02
1.980430e-02
2.169640e-02
2.318230e-02
2.426210e-02
2.493570e-02
2.022180e-02
2.196170e-02
2.328560e-02
2.419350e-02
2.468530e-02
2.163650e-02
2.123060e-02
2.092950e-02
2.073310e-02
2.064150e-02
2.197900e-02
2.158390e-02
2.127190e-02
2.104300e-02
2.089700e-02
2.233590e-02
2.197440e-02
2.167440e-02
2.143590e-02
2.125890e-02
2.270730e-02
2.240190e-02
2.213680e-02
2.191180e-02
2.172720e-02
2.309330e-02
2.286660e-02
2.265910e-02
2.247090e-02
2.230180e-02
2.064150e-02
2.042740e-02
2.016630e-02
1.985820e-02
1.950320e-02
2.089700e-02
2.055550e-02
2.026630e-02
2.002940e-02
1.984480e-02
2.125890e-02
2.080350e-02
2.048760e-02
2.031120e-02
2.027420e-02
2.172720e-02
2.117150e-02
2.083030e-02
2.070360e-02
2.079140e-02
2.230180e-02
2.165930e-02
2.129430e-02
2.120670e-02
2.139650e-02
1.950320e-02
1.640150e-02
1.476820e-02
1.460340e-02
1.590690e-02
1.984480e-02
1.639600e-02
1.484570e-02
1.519410e-02
1.744100e-02
2.027420e-02
1.667650e-02
1.524650e-02
1.598410e-02
1.888940e-02
2.079140e-02
1.724310e-02
1.597050e-02
1.697350e-02
2.025230e-02
2.139650e-02
1.809580e-02
1.701770e-02
1.816230e-02
2.152960e-02
1.590690e-02
9.127510e-03
3.351010e-03
-1.422550e-03
-5.193190e-03
1.744100e-02
1.032170e-02
4.856310e-03
1.044780e-03
-1.112880e-03
1.888940e-02
1.217090e-02
7.299790e-03
4.276060e-03
3.099720e-03
2.025230e-02
1.467510e-02
1.068140e-02
8.271270e-03
7.444620e-03
2.152960e-02
1.783430e-02
1.500130e-02
1.303040e-02
1.192180e-02
-5.193190e-03
-1.192990e-02
-1.648680e-02
-1.886400e-02
-1.906150e-02
-1.112880e-03
1.766700e-04
1.648020e-03
3.301160e-03
5.136100e-03
3.099720e-03
1.061630e-02
1.676700e-02
2.155180e-02
2.497070e-02
7.444620e-03
1.938900e-02
2.887010e-02
3.588780e-02
4.044220e-02
1.192180e-02
2.649480e-02
3.795730e-02
4.630930e-02
5.155070e-02
-1.906150e-02
-1.658700e-02
-1.213880e-02
-5.716950e-03
2.678620e-03
5.136100e-03
1.620250e-03
1.381540e-03
4.419960e-03
1.073550e-02
2.497070e-02
1.782170e-02
1.450850e-02
1.503100e-02
1.938940e-02
4.044220e-02
3.201730e-02
2.724200e-02
2.611630e-02
2.864020e-02
5.155070e-02
4.420710e-02
3.958210e-02
3.767570e-02
3.848800e-02
2.678620e-03
3.619000e-03
4.318770e-03
4.777940e-03
4.996490e-03
1.073550e-02
1.121140e-02
1.121980e-02
1.076080e-02
9.834350e-03
1.938940e-02
1.888370e-02
1.787640e-02
1.636740e-02
1.435670e-02
2.864020e-02
2.663610e-02
2.428850e-02
2.159760e-02
1.856340e-02
3.848800e-02
3.446830e-02
3.045620e-02
2.645160e-02
2.245460e-02
4.996490e-03
1.010180e-02
1.367720e-02
1.572250e-02
1.623780e-02
9.834350e-03
1.358600e-02
1.612840e-02
1.746150e-02
1.758540e-02
1.435670e-02
1.688850e-02
1.849970e-02
1.919050e-02
1.896080e-02
1.856340e-02
2.000910e-02
2.079120e-02
2.090950e-02
2.036410e-02
2.245460e-02
2.294810e-02
2.300260e-02
2.261840e-02
2.179520e-02
1.623780e-02
1.750230e-02
1.858780e-02
1.949430e-02
2.022180e-02
1.758540e-02
1.864820e-02
1.956150e-02
2.032520e-02
2.093930e-02
1.896080e-02
1.980100e-02
2.052590e-02
2.113540e-02
2.162960e-02
2.036410e-02
2.096070e-02
2.148100e-02
2.192500e-02
2.229270e-02
2.179520e-02
2.212720e-02
2.242670e-02
2.269390e-02
2.292860e-02
2.022180e-02
2.196170e-02
2.328560e-02
2.419350e-02
2.468530e-02
2.093930e-02
2.235400e-02
2.344730e-02
2.421920e-02
2.466980e-02
2.162960e-02
2.273800e-02
2.361440e-02
2.425880e-02
2.467120e-02
2.229270e-02
2.311380e-02
2.378700e-02
2.431220e-02
2.468950e-02
2.292860e-02
2.348140e-02
2.396500e-02
2.437950e-02
2.472470e-02
2.309330e-02
2.286660e-02
2.265910e-02
2.247090e-02
2.230180e-02
2.348320e-02
2.328110e-02
2.310920e-02
2.296760e-02
2.285620e-02
2.386930e-02
2.368760e-02
2.354690e-02
2.344720e-02
2.338870e-02
2.425160e-02
2.408610e-02
2.397220e-02
2.390990e-02
2.389930e-02
2.463000e-02
2.447660e-02
2.438510e-02
2.435550e-02
2.438790e-02
2.230180e-02
2.165930e-02
2.129430e-02
2.120670e-02
2.139650e-02
2.285620e-02
2.222360e-02
2.187420e-02
2.180800e-02
2.202510e-02
2.338870e-02
2.279200e-02
2.247450e-02
2.243630e-02
2.267740e-02
2.389930e-02
2.336450e-02
2.309530e-02
2.309150e-02
2.335330e-02
2.438790e-02
2.394120e-02
2.373650e-02
2.377370e-02
2.405290e-02
2.139650e-02
1.809580e-02
1.701770e-02
1.816230e-02
2.152960e-02
2.202510e-02
1.952780e-02
1.872950e-02
1.962990e-02
2.222930e-02
2.267740e-02
2.094790e-02
2.043930e-02
2.115180e-02
2.308520e-02
2.335330e-02
2.235590e-02
2.214730e-02
2.272770e-02
2.409710e-02
2.405290e-02
2.375180e-02
2.385350e-02
2.435790e-02
2.526510e-02
2.152960e-02
1.783430e-02
1.500130e-02
1.303040e-02
1.192180e-02
2.222930e-02
2.114900e-02
2.010900e-02
1.910950e-02
1.815030e-02
2.308520e-02
2.380740e-02
2.417560e-02
2.418970e-02
2.384970e-02
2.409710e-02
2.580980e-02
2.720110e-02
2.827110e-02
2.901980e-02
2.526510e-02
2.715590e-02
2.918550e-02
3.135380e-02
3.366080e-02
1.192180e-02
2.649480e-02
3.795730e-02
4.630930e-02
5.155070e-02
1.815030e-02
3.177200e-02
4.292910e-02
5.162150e-02
5.784940e-02
2.384970e-02
3.606390e-02
4.638490e-02
5.481270e-02
6.134720e-02
2.901980e-02
3.937040e-02
4.832470e-02
5.588260e-02
6.204410e-02
3.366080e-02
4.169170e-02
4.874850e-02
5.483140e-02
5.994020e-02
5.155070e-02
4.420710e-02
3.958210e-02
3.767570e-02
3.848800e-02
5.784940e-02
5.290790e-02
4.899930e-02
4.612350e-02
4.428050e-02
6.134720e-02
5.816440e-02
5.487400e-02
5.147590e-02
4.797000e-02
6.204410e-02
5.997660e-02
5.720620e-02
5.373290e-02
4.955670e-02
5.994020e-02
5.834440e-02
5.599580e-02
5.289450e-02
4.904030e-02
3.848800e-02
3.446830e-02
3.045620e-02
2.645160e-02
2.245460e-02
4.428050e-02
3.872670e-02
3.372630e-02
2.927930e-02
2.538570e-02
4.797000e-02
4.167650e-02
3.623600e-02
3.164840e-02
2.791370e-02
4.955670e-02
4.331800e-02
3.798540e-02
3.355880e-02
3.003840e-02
4.904030e-02
4.365100e-02
3.897440e-02
3.501070e-02
3.175980e-02
2.245460e-02
2.294810e-02
2.300260e-02
2.261840e-02
2.179520e-02
2.538570e-02
2.522960e-02
2.480860e-02
2.412260e-02
2.317160e-02
2.791370e-02
2.719400e-02
2.636920e-02
2.543940e-02
2.440460e-02
3.003840e-02
2.884110e-02
2.768470e-02
2.656910e-02
2.549430e-02
3.175980e-02
3.017100e-02
2.875490e-02
2.751140e-02
2.644060e-02
2.179520e-02
2.212720e-02
2.242670e-02
2.269390e-02
2.292860e-02
2.317160e-02
2.325530e-02
2.333110e-02
2.339890e-02
2.345880e-02
2.440460e-02
2.428100e-02
2.416660e-02
2.406140e-02
2.396540e-02
2.549430e-02
2.520410e-02
2.493310e-02
2.468120e-02
2.444840e-02
2.644060e-02
2.602480e-02
2.563070e-02
2.525840e-02
2.490780e-02
2.292860e-02
2.348140e-02
2.396500e-02
2.437950e-02
2.472470e-02
2.345880e-02
2.390030e-02
2.426970e-02
2.456700e-02
2.479220e-02
2.396540e-02
2.430420e-02
2.456730e-02
2.475480e-02
2.486650e-02
2.444840e-02
2.469320e-02
2.485800e-02
2.494290e-02
2.494770e-02
2.490780e-02
2.506730e-02
2.514180e-02
2.513120e-02
2.503560e-02
2.463000e-02
2.447660e-02
2.438510e-02
2.435550e-02
2.438790e-02
2.499690e-02
2.487310e-02
2.481020e-02
2.480800e-02
2.486650e-02
2.534870e-02
2.525800e-02
2.522460e-02
2.524830e-02
2.532930e-02
2.568540e-02
2.563120e-02
2.562830e-02
2.567670e-02
2.577630e-02
2.600690e-02
2.599270e-02
2.602140e-02
2.609300e-02
2.620750e-02
2.438790e-02
2.394120e-02
2.373650e-02
2.377370e-02
2.405290e-02
2.486650e-02
2.452390e-02
2.439580e-02
2.448230e-02
2.478320e-02
2.532930e-02
2.508510e-02
2.502770e-02
2.515700e-02
2.547310e-02
2.577630e-02
2.562480e-02
2.563200e-02
2.579800e-02
2.612260e-02
2.620750e-02
2.614300e-02
2.620890e-02
2.640520e-02
2.673180e-02
2.405290e-02
2.375180e-02
2.385350e-02
2.435790e-02
2.526510e-02
2.478320e-02
2.477840e-02
2.509030e-02
2.571900e-02
2.666440e-02
2.547310e-02
2.567720e-02
2.614060e-02
2.686320e-02
2.784510e-02
2.612260e-02
2.644830e-02
2.700430e-02
2.779060e-02
2.880720e-02
2.673180e-02
2.709160e-02
2.768130e-02
2.850100e-02
2.955070e-02
2.526510e-02
2.715590e-02
2.918550e-02
3.135380e-02
3.366080e-02
2.666440e-02
2.847310e-02
3.056570e-02
3.294230e-02
3.560280e-02
2.784510e-02
2.962910e-02
3.172490e-02
3.413230e-02
3.685150e-02
2.880720e-02
3.062400e-02
3.266290e-02
3.492390e-02
3.740710e-02
2.955070e-02
3.145760e-02
3.337970e-02
3.531700e-02
3.726950e-02
3.366080e-02
4.169170e-02
4.874850e-02
5.483140e-02
5.994020e-02
3.560280e-02
4.257090e-02
4.855510e-02
5.355530e-02
5.757150e-02
3.685150e-02
4.270050e-02
4.763380e-02
5.165170e-02
5.475390e-02
3.740710e-02
4.208030e-02
4.598480e-02
4.912050e-02
5.148750e-02
3.726950e-02
4.071050e-02
4.360790e-02
4.596180e-02
4.777220e-02
5.994020e-02
5.834440e-02
5.599580e-02
5.289450e-02
4.904030e-02
5.757150e-02
5.602300e-02
5.387390e-02
5.112430e-02
4.777400e-02
5.475390e-02
5.340280e-02
5.156750e-02
4.924780e-02
4.644400e-02
5.148750e-02
5.048380e-02
4.907640e-02
4.726520e-02
4.505030e-02
4.777220e-02
4.726600e-02
4.640070e-02
4.517630e-02
4.359280e-02
4.904030e-02
4.365100e-02
3.897440e-02
3.501070e-02
3.175980e-02
4.777400e-02
4.308100e-02
3.899880e-02
3.552750e-02
3.266710e-02
4.644400e-02
4.244940e-02
3.894500e-02
3.593080e-02
3.340670e-02
4.505030e-02
4.175630e-02
3.881310e-02
3.622060e-02
3.397880e-02
4.359280e-02
4.100170e-02
3.860310e-02
3.639700e-02
3.438340e-02
3.175980e-02
3.017100e-02
2.875490e-02
2.751140e-02
2.644060e-02
3.266710e-02
3.106970e-02
2.963950e-02
2.837650e-02
2.728060e-02
3.340670e-02
3.179940e-02
3.036040e-02
2.908970e-02
2.798740e-02
3.397880e-02
3.236020e-02
3.091770e-02
2.965130e-02
2.856090e-02
3.438340e-02
3.275210e-02
3.131130e-02
3.006100e-02
2.900130e-02
2.644060e-02
2.602480e-02
2.563070e-02
2.525840e-02
2.490780e-02
2.728060e-02
2.675370e-02
2.626510e-02
2.581480e-02
2.540270e-02
2.798740e-02
2.737340e-02
2.681210e-02
2.630370e-02
2.584810e-02
2.856090e-02
2.788370e-02
2.727180e-02
2.672520e-02
2.624380e-02
2.900130e-02
2.828480e-02
2.764410e-02
2.707910e-02
2.659000e-02
2.490780e-02
2.506730e-02
2.514180e-02
2.513120e-02
2.503560e-02
2.540270e-02
2.542480e-02
2.539250e-02
2.530590e-02
2.516490e-02
2.584810e-02
2.574950e-02
2.562440e-02
2.547270e-02
2.529430e-02
2.624380e-02
2.604150e-02
2.583740e-02
2.563150e-02
2.542380e-02
2.659000e-02
2.630080e-02
2.603170e-02
2.578250e-02
2.555330e-02
2.600690e-02
2.599270e-02
2.602140e-02
2.609300e-02
2.620750e-02
2.630990e-02
2.633190e-02
2.639040e-02
2.648530e-02
2.661680e-02
2.659390e-02
2.664950e-02
2.673550e-02
2.685180e-02
2.699840e-02
2.685910e-02
2.694560e-02
2.705670e-02
2.719230e-02
2.735250e-02
2.710540e-02
2.722020e-02
2.735400e-02
2.750690e-02
2.767890e-02
2.620750e-02
2.614300e-02
2.620890e-02
2.640520e-02
2.673180e-02
2.661680e-02
2.660510e-02
2.671140e-02
2.693560e-02
2.727770e-02
2.699840e-02
2.703040e-02
2.716930e-02
2.741520e-02
2.776810e-02
2.735250e-02
2.741880e-02
2.758260e-02
2.784390e-02
2.820280e-02
2.767890e-02
2.777050e-02
2.795140e-02
2.822190e-02
2.858180e-02
2.673180e-02
2.709160e-02
2.768130e-02
2.850100e-02
2.955070e-02
2.727770e-02
2.769400e-02
2.830580e-02
2.911320e-02
3.011620e-02
2.776810e-02
2.823020e-02
2.885260e-02
2.963500e-02
3.057760e-02
2.820280e-02
2.870040e-02
2.932170e-02
3.006660e-02
3.093510e-02
2.858180e-02
2.910450e-02
2.971310e-02
3.040780e-02
3.118850e-02
2.955070e-02
3.145760e-02
3.337970e-02
3.531700e-02
3.726950e-02
3.011620e-02
3.188850e-02
3.364460e-02
3.538450e-02
3.710820e-02
3.057760e-02
3.218770e-02
3.376600e-02
3.531230e-02
3.682680e-02
3.093510e-02
3.235530e-02
3.374370e-02
3.510040e-02
3.642540e-02
3.118850e-02
3.239110e-02
3.357790e-02
3.474890e-02
3.590400e-02
3.726950e-02
4.071050e-02
4.360790e-02
4.596180e-02
4.777220e-02
3.710820e-02
3.985360e-02
4.215190e-02
4.400330e-02
4.540760e-02
3.682680e-02
3.901740e-02
4.083910e-02
4.229190e-02
4.337580e-02
3.642540e-02
3.820200e-02
3.966940e-02
4.082760e-02
4.167670e-02
3.590400e-02
3.740730e-02
3.864280e-02
3.961040e-02
4.031030e-02
4.777220e-02
4.726600e-02
4.640070e-02
4.517630e-02
4.359280e-02
4.540760e-02
4.506790e-02
4.441430e-02
4.344670e-02
4.216520e-02
4.337580e-02
4.316610e-02
4.268250e-02
4.192510e-02
4.089380e-02
4.167670e-02
4.156040e-02
4.120530e-02
4.061140e-02
3.977870e-02
4.031030e-02
4.025090e-02
3.998270e-02
3.950570e-02
3.881990e-02
4.359280e-02
4.100170e-02
3.860310e-02
3.639700e-02
3.438340e-02
4.216520e-02
3.997220e-02
3.793550e-02
3.605490e-02
3.433050e-02
4.089380e-02
3.905670e-02
3.733820e-02
3.573850e-02
3.425740e-02
3.977870e-02
3.825510e-02
3.681140e-02
3.544770e-02
3.416400e-02
3.881990e-02
3.756740e-02
3.635490e-02
3.518260e-02
3.405030e-02
3.438340e-02
3.275210e-02
3.131130e-02
3.006100e-02
2.900130e-02
3.433050e-02
3.285690e-02
3.153760e-02
3.037260e-02
2.936200e-02
3.425740e-02
3.291740e-02
3.170390e-02
3.061690e-02
2.965640e-02
3.416400e-02
3.293360e-02
3.181020e-02
3.079390e-02
2.988460e-02
3.405030e-02
3.290560e-02
3.185670e-02
3.090360e-02
3.004650e-02
2.900130e-02
2.828480e-02
2.764410e-02
2.707910e-02
2.659000e-02
2.936200e-02
2.863670e-02
2.798510e-02
2.740720e-02
2.690290e-02
2.965640e-02
2.892930e-02
2.827340e-02
2.768850e-02
2.717490e-02
2.988460e-02
2.916250e-02
2.850870e-02
2.792310e-02
2.740580e-02
3.004650e-02
2.933630e-02
2.869110e-02
2.811100e-02
2.759580e-02
2.659000e-02
2.630080e-02
2.603170e-02
2.578250e-02
2.555330e-02
2.690290e-02
2.655790e-02
2.624260e-02
2.595710e-02
2.570130e-02
2.717490e-02
2.678490e-02
2.643250e-02
2.611770e-02
2.584040e-02
2.740580e-02
2.698190e-02
2.660150e-02
2.626440e-02
2.597060e-02
2.759580e-02
2.714890e-02
2.674940e-02
2.639700e-02
2.609200e-02
2.710540e-02
2.722020e-02
2.735400e-02
2.750690e-02
2.767890e-02
2.733260e-02
2.746470e-02
2.761400e-02
2.778030e-02
2.796370e-02
2.754220e-02
2.768910e-02
2.785100e-02
2.802800e-02
2.821990e-02
2.773410e-02
2.789330e-02
2.806530e-02
2.825000e-02
2.844760e-02
2.790840e-02