<?xml version="1.0"?>
<VTKFile type="UnstructuredGrid" version="0.1" byte_order="LittleEndian" compressor="vtkZLibDataCompressor">
<UnstructuredGrid>
<Piece NumberOfPoints="2500" NumberOfCells="1600">
<Points>
<DataArray type="Float32" NumberOfComponents="3" format="ascii">
-3.630000e+00 0.000000e+00 0.000000e+00
-3.448500e+00 0.000000e+00 0.000000e+00
-3.267000e+00 0.000000e+00 0.000000e+00
-3.085500e+00 0.000000e+00 0.000000e+00
-2.904000e+00 0.000000e+00 0.000000e+00
-3.630000e+00 1.282500e-01 0.000000e+00
-3.448500e+00 1.282500e-01 0.000000e+00
-3.267000e+00 1.282500e-01 0.000000e+00
-3.085500e+00 1.282500e-01 0.000000e+00
-2.904000e+00 1.282500e-01 0.000000e+00
-3.630000e+00 2.565000e-01 0.000000e+00
-3.448500e+00 2.565000e-01 0.000000e+00
-3.267000e+00 2.565000e-01 0.000000e+00
-3.085500e+00 2.565000e-01 0.000000e+00
-2.904000e+00 2.565000e-01 0.000000e+00
-3.630000e+00 3.847500e-01 0.000000e+00
-3.448500e+00 3.847500e-01 0.000000e+00
-3.267000e+00 3.847500e-01 0.000000e+00
-3.085500e+00 3.847500e-01 0.000000e+00
-2.904000e+00 3.847500e-01 0.000000e+00
-3.630000e+00 5.130000e-01 0.000000e+00
-3.448500e+00 5.130000e-01 0.000000e+00
-3.267000e+00 5.130000e-01 0.000000e+00
-3.085500e+00 5.130000e-01 0.000000e+00
-2.904000e+00 5.130000e-01 0.000000e+00
-2.904000e+00 0.000000e+00 0.000000e+00
-2.722500e+00 0.000000e+00 0.000000e+00
-2.541000e+00 0.000000e+00 0.000000e+00
-2.359500e+00 0.000000e+00 0.000000e+00
-2.178000e+00 0.000000e+00 0.000000e+00
-2.904000e+00 1.282500e-01 0.000000e+00
-2.722500e+00 1.282500e-01 0.000000e+00
-2.541000e+00 1.282500e-01 0.000000e+00
-2.359500e+00 1.282500e-01 0.000000e+00
-2.178000e+00 1.282500e-01 0.000000e+00
-2.904000e+00 2.565000e-01 0.000000e+00
-2.722500e+00 2.565000e-01 0.000000e+00
-2.541000e+00 2.565000e-01 0.000000e+00
-2.359500e+00 2.565000e-01 0.000000e+00
-2.178000e+00 2.565000e-01 0.000000e+00
-2.904000e+00 3.847500e-01 0.000000e+00
-2.722500e+00 3.847500e-01 0.000000e+00
-2.541000e+00 3.847500e-01 0.000000e+00
-2.359500e+00 3.847500e-01 0.000000e+00
-2.178000e+00 3.847500e-01 0.000000e+00
-2.904000e+00 5.130000e-01 0.000000e+00
-2.722500e+00 5.130000e-01 0.000000e+00
-2.541000e+00 5.130000e-01 0.000000e+00
-2.359500e+00 5.130000e-01 0.000000e+00
-2.178000e+00 5.130000e-01 0.000000e+00
-2.178000e+00 0.000000e+00 0.000000e+00
-1.996500e+00 0.000000e+00 0.000000e+00
-1.815000e+00 0.000000e+00 0.000000e+00
-1.633500e+00 0.000000e+00 0.000000e+00
-1.452000e+00 0.000000e+00 0.000000e+00
-2.178000e+00 1.282500e-01 0.000000e+00
-1.996500e+00 1.282500e-01 0.000000e+00
-1.815000e+00 1.282500e-01 0.000000e+00
-1.633500e+00 1.282500e-01 0.000000e+00
-1.452000e+00 1.282500e-01 0.000000e+00
-2.178000e+00 2.565000e-01 0.000000e+00
-1.996500e+00 2.565000e-01 0.000000e+00
-1.815000e+00 2.565000e-01 0.000000e+00
-1.633500e+00 2.565000e-01 0.000000e+00
-1.452000e+00 2.565000e-01 0.000000e+00
-2.178000e+00 3.847500e-01 0.000000e+00
-1.996500e+00 3.847500e-01 0.000000e+00
-1.815000e+00 3.847500e-01 0.000000e+00
-1.633500e+00 3.847500e-01 0.000000e+00
-1.452000e+00 3.847500e-01 0.000000e+00
-2.178000e+00 5.130000e-01 0.000000e+00
-1.996500e+00 5.130000e-01 0.000000e+00
-1.815000e+00 5.130000e-01 0.000000e+00
-1.633500e+00 5.130000e-01 0.000000e+00
-1.452000e+00 5.130000e-01 0.000000e+00
-1.452000e+00 0.000000e+00 0.000000e+00
-1.270500e+00 0.000000e+00 0.000000e+00
-1.089000e+00 0.000000e+00 0.000000e+00
-9.075000e-01 0.000000e+00 0.000000e+00
-7.260000e-01 0.000000e+00 0.000000e+00
-1.452000e+00 1.282500e-01 0.000000e+00
-1.270500e+00 1.282500e-01 0.000000e+00
-1.089000e+00 1.282500e-01 0.000000e+00
-9.075000e-01 1.282500e-01 0.000000e+00
-7.260000e-01 1.282500e-01 0.000000e+00
-1.452000e+00 2.565000e-01 0.000000e+00
-1.270500e+00 2.565000e-01 0.000000e+00
-1.089000e+00 2.565000e-01 0.000000e+00
-9.075000e-01 2.565000e-01 0.000000e+00
-7.260000e-01 2.565000e-01 0.000000e+00
-1.452000e+00 3.847500e-01 0.000000e+00
-1.270500e+00 3.847500e-01 0.000000e+00
-1.089000e+00 3.847500e-01 0.000000e+00
-9.075000e-01 3.847500e-01 0.000000e+00
-7.260000e-01 3.847500e-01 0.000000e+00
-1.452000e+00 5.130000e-01 0.000000e+00
-1.270500e+00 5.130000e-01 0.000000e+00
-1.089000e+00 5.130000e-01 0.000000e+00
-9.075000e-01 5.130000e-01 0.000000e+00
-7.260000e-01 5.130000e-01 0.000000e+00
-7.260000e-01 0.000000e+00 0.000000e+00
-5.445000e-01 0.000000e+00 0.000000e+00
-3.630000e-01 0.000000e+00 0.000000e+00
-1.815000e-01 0.000000e+00 0.000000e+00
0.000000e+00 0.000000e+00 0.000000e+00
-7.260000e-01 1.282500e-01 0.000000e+00
-5.445000e-01 1.282500e-01 0.000000e+00
-3.630000e-01 1.282500e-01 0.000000e+00
-1.815000e-01 1.282500e-01 0.000000e+00
0.000000e+00 1.282500e-01 0.000000e+00
-7.260000e-01 2.565000e-01 0.000000e+00
-5.445000e-01 2.565000e-01 0.000000e+00
-3.630000e-01 2.565000e-01 0.000000e+00
-1.815000e-01 2.565000e-01 0.000000e+00
0.000000e+00 2.565000e-01 0.000000e+00
-7.260000e-01 3.847500e-01 0.000000e+00
-5.445000e-01 3.847500e-01 0.000000e+00
-3.630000e-01 3.847500e-01 0.000000e+00
-1.815000e-01 3.847500e-01 0.000000e+00
0.000000e+00 3.847500e-01 0.000000e+00
-7.260000e-01 5.130000e-01 0.000000e+00
-5.445000e-01 5.130000e-01 0.000000e+00
-3.630000e-01 5.130000e-01 0.000000e+00
-1.815000e-01 5.130000e-01 0.000000e+00
0.000000e+00 5.130000e-01 0.000000e+00
0.000000e+00 0.000000e+00 0.000000e+00
1.815000e-01 0.000000e+00 0.000000e+00
3.630000e-01 0.000000e+00 0.000000e+00
5.445000e-01 0.000000e+00 0.000000e+00
7.260000e-01 0.000000e+00 0.000000e+00
0.000000e+00 1.282500e-01 0.000000e+00
1.815000e-01 1.282500e-01 0.000000e+00
3.630000e-01 1.282500e-01 0.000000e+00
5.445000e-01 1.282500e-01 0.000000e+00
7.260000e-01 1.282500e-01 0.000000e+00
0.000000e+00 2.565000e-01 0.000000e+00
1.815000e-01 2.565000e-01 0.000000e+00
3.630000e-01 2.565000e-01 0.000000e+00
5.445000e-01 2.565000e-01 0.000000e+00
7.260000e-01 2.565000e-01 0.000000e+00
0.000000e+00 3.847500e-01 0.000000e+00
1.815000e-01 3.847500e-01 0.000000e+00
3.630000e-01 3.847500e-01 0.000000e+00
5.445000e-01 3.847500e-01 0.000000e+00
7.260000e-01 3.847500e-01 0.000000e+00
0.000000e+00 5.130000e-01 0.000000e+00
1.815000e-01 5.130000e-01 0.000000e+00
3.630000e-01 5.130000e-01 0.000000e+00
5.445000e-01 5.130000e-01 0.000000e+00
7.260000e-01 5.130000e-01 0.000000e+00
7.260000e-01 0.000000e+00 0.000000e+00
9.075000e-01 0.000000e+00 0.000000e+00
1.089000e+00 0.000000e+00 0.000000e+00
1.270500e+00 0.000000e+00 0.000000e+00
1.452000e+00 0.000000e+00 0.000000e+00
7.260000e-01 1.282500e-01 0.000000e+00
9.075000e-01 1.282500e-01 0.000000e+00
1.089000e+00 1.282500e-01 0.000000e+00
1.270500e+00 1.282500e-01 0.000000e+00
1.452000e+00 1.282500e-01 0.000000e+00
7.260000e-01 2.565000e-01 0.000000e+00
9.075000e-01 2.565000e-01 0.000000e+00
1.089000e+00 2.565000e-01 0.000000e+00
1.270500e+00 2.565000e-01 0.000000e+00
1.452000e+00 2.565000e-01 0.000000e+00
7.260000e-01 3.847500e-01 0.000000e+00
9.075000e-01 3.847500e-01 0.000000e+00
1.089000e+00 3.847500e-01 0.000000e+00
1.270500e+00 3.847500e-01 0.000000e+00
1.452000e+00 3.847500e-01 0.000000e+00
7.260000e-01 5.130000e-01 0.000000e+00
9.075000e-01 5.130000e-01 0.000000e+00
1.089000e+00 5.130000e-01 0.000000e+00
1.270500e+00 5.130000e-01 0.000000e+00
1.452000e+00 5.130000e-01 0.000000e+00
1.452000e+00 0.000000e+00 0.000000e+00
1.633500e+00 0.000000e+00 0.000000e+00
1.815000e+00 0.000000e+00 0.000000e+00
1.996500e+00 0.000000e+00 0.000000e+00
2.178000e+00 0.000000e+00 0.000000e+00
1.452000e+00 1.282500e-01 0.000000e+00
1.633500e+00 1.282500e-01 0.000000e+00
1.815000e+00 1.282500e-01 0.000000e+00
1.996500e+00 1.282500e-01 0.000000e+00
2.178000e+00 1.282500e-01 0.000000e+00
1.452000e+00 2.565000e-01 0.000000e+00
1.633500e+00 2.565000e-01 0.000000e+00
1.815000e+00 2.565000e-01 0.000000e+00
1.996500e+00 2.565000e-01 0.000000e+00
2.178000e+00 2.565000e-01 0.000000e+00
1.452000e+00 3.847500e-01 0.000000e+00
1.633500e+00 3.847500e-01 0.000000e+00
1.815000e+00 3.847500e-01 0.000000e+00
1.996500e+00 3.847500e-01 0.000000e+00
2.178000e+00 3.847500e-01 0.000000e+00
1.452000e+00 5.130000e-01 0.000000e+00
1.633500e+00 5.130000e-01 0.000000e+00
1.815000e+00 5.130000e-01 0.000000e+00
1.996500e+00 5.130000e-01 0.000000e+00
2.178000e+00 5.130000e-01 0.000000e+00
2.178000e+00 0.000000e+00 0.000000e+00
2.359500e+00 0.000000e+00 0.000000e+00
2.541000e+00 0.000000e+00 0.000000e+00
2.722500e+00 0.000000e+00 0.000000e+00
2.904000e+00 0.000000e+00 0.000000e+00
2.178000e+00 1.282500e-01 0.000000e+00
2.359500e+00 1.282500e-01 0.000000e+00
2.541000e+00 1.282500e-01 0.000000e+00
2.722500e+00 1.282500e-01 0.000000e+00
2.904000e+00 1.282500e-01 0.000000e+00
2.178000e+00 2.565000e-01 0.000000e+00
2.359500e+00 2.565000e-01 0.000000e+00
2.541000e+00 2.565000e-01 0.000000e+00
2.722500e+00 2.565000e-01 0.000000e+00
2.904000e+00 2.565000e-01 0.000000e+00
2.178000e+00 3.847500e-01 0.000000e+00
2.359500e+00 3.847500e-01 0.000000e+00
2.541000e+00 3.847500e-01 0.000000e+00
2.722500e+00 3.847500e-01 0.000000e+00
2.904000e+00 3.847500e-01 0.000000e+00
2.178000e+00 5.130000e-01 0.000000e+00
2.359500e+00 5.130000e-01 0.000000e+00
2.541000e+00 5.130000e-01 0.000000e+00
2.722500e+00 5.130000e-01 0.000000e+00
2.904000e+00 5.130000e-01 0.000000e+00
2.904000e+00 0.000000e+00 0.000000e+00
3.085500e+00 0.000000e+00 0.000000e+00
3.267000e+00 0.000000e+00 0.000000e+00
3.448500e+00 0.000000e+00 0.000000e+00
3.630000e+00 0.000000e+00 0.000000e+00
2.904000e+00 1.282500e-01 0.000000e+00
3.085500e+00 1.282500e-01 0.000000e+00
3.267000e+00 1.282500e-01 0.000000e+00
3.448500e+00 1.282500e-01 0.000000e+00
3.630000e+00 1.282500e-01 0.000000e+00
2.904000e+00 2.565000e-01 0.000000e+00
3.085500e+00 2.565000e-01 0.000000e+00
3.267000e+00 2.565000e-01 0.000000e+00
3.448500e+00 2.565000e-01 0.000000e+00
3.630000e+00 2.565000e-01 0.000000e+00
2.904000e+00 3.847500e-01 0.000000e+00
3.085500e+00 3.847500e-01 0.000000e+00
3.267000e+00 3.847500e-01 0.000000e+00
3.448500e+00 3.847500e-01 0.000000e+00
3.630000e+00 3.847500e-01 0.000000e+00
2.904000e+00 5.130000e-01 0.000000e+00
[...]
<PointData>
<DataArray type="Float32" Name="V1" format="ascii">
0.000000e+00
0.000000e+00
0.000000e+00
0.000000e+00
0.000000e+00
1.264110e-02
1.098900e-02
9.660180e-03
8.654730e-03
7.972630e-03
2.028400e-02
1.815980e-02
1.638930e-02
1.497260e-02
1.390980e-02
2.292870e-02
2.151230e-02
2.018730e-02
1.895370e-02
1.781150e-02
2.057510e-02
2.104670e-02
2.105430e-02
2.059800e-02
1.967780e-02
0.000000e+00
0.000000e+00
0.000000e+00
0.000000e+00
0.000000e+00
7.972630e-03
6.894260e-03
6.080450e-03
5.531200e-03
5.246520e-03
1.390980e-02
1.228040e-02
1.095800e-02
9.942500e-03
9.233990e-03
1.781150e-02
1.615850e-02
1.463260e-02
1.323390e-02
1.196240e-02
1.967780e-02
1.852840e-02
1.710430e-02
1.540540e-02
1.343170e-02
0.000000e+00
0.000000e+00
0.000000e+00
0.000000e+00
0.000000e+00
5.246520e-03
4.733440e-03
4.588000e-03
4.810170e-03
5.399980e-03
9.233990e-03
8.131870e-03
7.605010e-03
7.653420e-03
8.277070e-03
1.196240e-02
1.019530e-02
9.051060e-03
8.529730e-03
8.631290e-03
1.343170e-02
1.092370e-02
8.926120e-03
7.439110e-03
6.462620e-03
0.000000e+00
0.000000e+00
0.000000e+00
0.000000e+00
0.000000e+00
5.399980e-03
4.210570e-03
3.252450e-03
2.525630e-03
2.030100e-03
8.277070e-03
5.339100e-03
2.662130e-03
2.461670e-04
-1.908790e-03
8.631290e-03
3.385610e-03
-1.770950e-03
-6.838380e-03
-1.181670e-02
6.462620e-03
-1.649920e-03
-1.004680e-02
-1.872800e-02
-2.769360e-02
0.000000e+00
0.000000e+00
0.000000e+00
0.000000e+00
0.000000e+00
2.030100e-03
-7.731950e-03
-1.844020e-02
-3.009470e-02
-4.269540e-02
-1.908790e-03
-1.805170e-02
-3.462830e-02
-5.163850e-02
-6.908250e-02
-1.181670e-02
-3.095920e-02
-4.856410e-02
-6.463150e-02
-7.916130e-02
-2.769360e-02
-4.645450e-02
-6.024780e-02
-6.907360e-02
-7.293180e-02
0.000000e+00
0.000000e+00
0.000000e+00
0.000000e+00
0.000000e+00
-4.269540e-02
-3.939750e-02
-3.522350e-02
-3.017340e-02
-2.424720e-02
-6.908250e-02
-6.315630e-02
-5.578180e-02
-4.695880e-02
-3.668740e-02
-7.916130e-02
-7.127660e-02
-6.167490e-02
-5.035620e-02
-3.732060e-02
-7.293180e-02
-6.375820e-02
-5.290280e-02
-4.036560e-02
-2.614670e-02
0.000000e+00
0.000000e+00
0.000000e+00
0.000000e+00
0.000000e+00
-2.424720e-02
-1.957990e-02
-1.507150e-02
-1.072210e-02
-6.531670e-03
-3.668740e-02
-2.972460e-02
-2.295470e-02
-1.637760e-02
-9.993470e-03
-3.732060e-02
-3.043420e-02
-2.364950e-02
-1.696660e-02
-1.038540e-02
-2.614670e-02
-2.170850e-02
-1.715600e-02
-1.248900e-02
-7.707520e-03
0.000000e+00
0.000000e+00
0.000000e+00
0.000000e+00
0.000000e+00
-6.531670e-03
-1.486840e-03
2.179080e-03
4.466120e-03
5.374260e-03
-9.993470e-03
-1.974230e-03
3.915920e-03
7.676980e-03
9.308950e-03
-1.038540e-02
-1.462170e-03
5.210500e-03
9.632580e-03
1.180410e-02
-7.707520e-03
4.935280e-05
6.062840e-03
1.033290e-02
1.285960e-02
0.000000e+00
0.000000e+00
0.000000e+00
0.000000e+00
0.000000e+00
5.374260e-03
6.454610e-03
7.410440e-03
8.241730e-03
8.948490e-03
9.308950e-03
1.104270e-02
1.257770e-02
1.391370e-02
1.505100e-02
1.180410e-02
1.376430e-02
1.550160e-02
1.701600e-02
1.830740e-02
1.285960e-02
1.461940e-02
1.618240e-02
1.754850e-02
1.871780e-02
0.000000e+00
0.000000e+00
0.000000e+00
0.000000e+00
0.000000e+00
8.948490e-03
9.613230e-03
1.029730e-02
1.100080e-02
1.172370e-02
1.505100e-02
1.630730e-02
1.750960e-02
1.865790e-02
1.975230e-02
1.830740e-02
2.008210e-02
2.163670e-02
2.297120e-02
2.408570e-02
1.871780e-02
2.093770e-02
2.267870e-02
2.394080e-02
2.472390e-02
2.057510e-02
2.104670e-02
2.105430e-02
2.059800e-02
1.967780e-02
2.078850e-02
2.093120e-02
2.082630e-02
2.047370e-02
1.987340e-02
2.103660e-02
2.091210e-02
2.069490e-02
2.038510e-02
1.998270e-02
2.131930e-02
2.098920e-02
2.066030e-02
2.033240e-02
2.000550e-02
2.163650e-02
2.116270e-02
2.072230e-02
2.031540e-02
1.994200e-02
1.967780e-02
1.852840e-02
1.710430e-02
1.540540e-02
1.343170e-02
1.987340e-02
1.908880e-02
1.787910e-02
1.624440e-02
1.418460e-02
1.998270e-02
1.943200e-02
1.841590e-02
1.693450e-02
1.498780e-02
2.000550e-02
1.955790e-02
1.871470e-02
1.747580e-02
1.584130e-02
1.994200e-02
1.946680e-02
1.877550e-02
1.786830e-02
1.674510e-02
1.343170e-02
1.092370e-02
8.926120e-03
7.439110e-03
6.462620e-03
1.418460e-02
1.091880e-02
8.651430e-03
7.382390e-03
7.111730e-03
1.498780e-02
1.078620e-02
8.419520e-03
7.887890e-03
9.191250e-03
1.584130e-02
1.052560e-02
8.230400e-03
8.955590e-03
1.270120e-02
1.674510e-02
1.013730e-02
8.084070e-03
1.058550e-02
1.764160e-02
6.462620e-03
-1.649920e-03
-1.004680e-02
-1.872800e-02
-2.769360e-02
7.111730e-03
-4.558610e-03
-1.491930e-02
-2.397030e-02
-3.171160e-02
9.191250e-03
-5.112010e-03
-1.665810e-02
-2.544690e-02
-3.147860e-02
1.270120e-02
-3.310110e-03
-1.526320e-02
-2.315800e-02
-2.699450e-02
1.764160e-02
8.470800e-04
-1.073460e-02
-1.710340e-02
-1.825940e-02
-2.769360e-02
-4.645450e-02
-6.024780e-02
-6.907360e-02
-7.293180e-02
-3.171160e-02
-4.571180e-02
-5.716330e-02
-6.606620e-02
-7.242040e-02
-3.147860e-02
-3.989370e-02
-4.764590e-02
-5.473500e-02
-6.116110e-02
-2.699450e-02
-2.900030e-02
-3.169550e-02
-3.508000e-02
-3.915390e-02
-1.825940e-02
-1.303160e-02
-9.312180e-03
-7.101260e-03
-6.398790e-03
-7.293180e-02
-6.375820e-02
-5.290280e-02
-4.036560e-02
-2.614670e-02
-7.242040e-02
-6.293110e-02
-5.149200e-02
-3.810310e-02
-2.276420e-02
-6.116110e-02
-5.261960e-02
-4.231550e-02
-3.024880e-02
-1.641960e-02
-3.915390e-02
-3.282350e-02
-2.537320e-02
-1.680300e-02
-7.112870e-03
-6.398790e-03
-3.542920e-03
-6.651630e-04
2.234490e-03
5.156040e-03
-2.614670e-02
-2.170850e-02
-1.715600e-02
-1.248900e-02
-7.707520e-03
-2.276420e-02
-1.747810e-02
-1.301470e-02
-9.374060e-03
-6.556240e-03
-1.641960e-02
-1.105160e-02
-7.184680e-03
-4.818790e-03
-3.953960e-03
-7.112870e-03
-2.429240e-03
3.339960e-04
1.176850e-03
9.931150e-05
5.156040e-03
8.389090e-03
9.541370e-03
8.612860e-03
5.603580e-03
-7.707520e-03
4.935280e-05
6.062840e-03
1.033290e-02
1.285960e-02
-6.556240e-03
1.767510e-03
8.017740e-03
1.219440e-02
1.429760e-02
-3.953960e-03
4.173760e-03
1.015640e-02
1.399410e-02
1.568670e-02
9.931150e-05
7.268090e-03
1.247890e-02
1.573180e-02
1.702670e-02
5.603580e-03
1.105050e-02
1.498520e-02
1.740770e-02
1.831790e-02
1.285960e-02
1.461940e-02
1.618240e-02
1.754850e-02
1.871780e-02
1.429760e-02
1.561950e-02
1.681660e-02
1.788920e-02
1.883710e-02
1.568670e-02
1.662330e-02
1.749080e-02
1.828920e-02
1.901840e-02
1.702670e-02
1.763110e-02
1.820500e-02
1.874850e-02
1.926160e-02
1.831790e-02
1.864270e-02
1.895910e-02
1.926710e-02
1.956670e-02
1.871780e-02
2.093770e-02
2.267870e-02
2.394080e-02
2.472390e-02
1.883710e-02
2.122740e-02
2.303480e-02
2.425920e-02
2.490060e-02
1.901840e-02
2.150700e-02
2.332170e-02
2.446230e-02
2.492900e-02
1.926160e-02
2.177640e-02
2.353920e-02
2.455010e-02
2.480910e-02
1.956670e-02
2.203560e-02
2.368760e-02
2.452270e-02
2.454080e-02
2.163650e-02
2.116270e-02
2.072230e-02
2.031540e-02
1.994200e-02
2.197900e-02
2.149880e-02
2.108990e-02
2.075230e-02
2.048600e-02
2.233590e-02
2.187960e-02
2.151770e-02
2.125020e-02
2.107700e-02
2.270730e-02
2.230530e-02
2.200590e-02
2.180910e-02
2.171510e-02
2.309330e-02
2.277570e-02
2.255430e-02
2.242910e-02
2.240010e-02
1.994200e-02
1.946680e-02
1.877550e-02
1.786830e-02
1.674510e-02
2.048600e-02
1.973100e-02
1.910400e-02
1.860510e-02
1.823420e-02
2.107700e-02
2.010990e-02
1.953850e-02
1.936280e-02
1.958290e-02
2.171510e-02
2.060350e-02
2.007910e-02
2.014160e-02
2.079130e-02
2.240010e-02
2.121190e-02
2.072570e-02
2.094140e-02
2.185920e-02
1.674510e-02
1.013730e-02
8.084070e-03
1.058550e-02
1.764160e-02
1.823420e-02
1.164520e-02
9.793100e-03
1.267780e-02
2.029930e-02
1.958290e-02
1.365860e-02
1.212610e-02
1.498550e-02
2.223660e-02
2.079130e-02
1.617740e-02
1.508320e-02
1.750850e-02
2.345350e-02
2.185920e-02
1.920160e-02
1.866430e-02
2.024700e-02
2.395000e-02
1.764160e-02
8.470800e-04
-1.073460e-02
-1.710340e-02
-1.825940e-02
2.029930e-02
8.954040e-03
5.598590e-04
-4.883260e-03
-7.375330e-03
2.223660e-02
1.601340e-02
1.089950e-02
6.894820e-03
3.999470e-03
2.345350e-02
2.202510e-02
2.028420e-02
1.823080e-02
1.586500e-02
2.395000e-02
2.698920e-02
2.871410e-02
2.912480e-02
2.822130e-02
-1.825940e-02
-1.303160e-02
-9.312180e-03
-7.101260e-03
-6.398790e-03
-7.375330e-03
4.117590e-03
1.403040e-02
2.236300e-02
2.911560e-02
3.999470e-03
1.889190e-02
3.222930e-02
4.401160e-02
5.423890e-02
1.586500e-02
3.129140e-02
4.528460e-02
5.784450e-02
6.897120e-02
2.822130e-02
4.131620e-02
5.319630e-02
6.386180e-02
7.331250e-02
-6.398790e-03
-3.542920e-03
-6.651630e-04
2.234490e-03
5.156040e-03
2.911560e-02
2.338740e-02
1.901730e-02
1.600500e-02
1.435080e-02
5.423890e-02
4.357470e-02
3.485710e-02
2.808600e-02
2.326150e-02
6.897120e-02
5.701890e-02
4.685430e-02
3.847740e-02
3.188820e-02
7.331250e-02
6.372000e-02
5.500890e-02
4.717920e-02
4.023090e-02
5.156040e-03
8.389090e-03
9.541370e-03
8.612860e-03
5.603580e-03
1.435080e-02
1.628230e-02
1.636530e-02
1.459990e-02
1.098590e-02
2.326150e-02
2.363690e-02
2.251530e-02
1.989680e-02
1.578140e-02
3.188820e-02
3.045280e-02
2.799130e-02
2.450370e-02
1.998990e-02
4.023090e-02
3.673010e-02
3.279330e-02
2.842040e-02
2.361150e-02
5.603580e-03
1.105050e-02
1.498520e-02
1.740770e-02
1.831790e-02
1.098590e-02
1.444110e-02
1.699230e-02
1.863970e-02
1.938310e-02
1.578140e-02
1.755610e-02
1.892400e-02
1.988510e-02
2.043950e-02
1.998990e-02
2.039550e-02
2.078020e-02
2.114410e-02
2.148720e-02
2.361150e-02
2.295930e-02
2.256100e-02
2.241660e-02
2.252610e-02
1.831790e-02
1.864270e-02
1.895910e-02
1.926710e-02
1.956670e-02
1.938310e-02
1.971940e-02
1.997760e-02
2.015780e-02
2.025990e-02
2.043950e-02
2.076050e-02
2.095370e-02
2.101910e-02
2.095670e-02
2.148720e-02
2.176610e-02
2.188750e-02
2.185110e-02
2.165710e-02
2.252610e-02
2.273630e-02
2.277890e-02
2.265380e-02
2.236120e-02
1.956670e-02
2.203560e-02
2.368760e-02
2.452270e-02
2.454080e-02
2.025990e-02
2.236340e-02
2.378190e-02
2.451560e-02
2.456430e-02
2.095670e-02
2.270080e-02
2.388830e-02
2.451910e-02
2.459340e-02
2.165710e-02
2.304780e-02
2.400650e-02
2.453330e-02
2.462800e-02
2.236120e-02
2.340450e-02
2.413680e-02
2.455800e-02
2.466820e-02
2.309330e-02
2.277570e-02
2.255430e-02
2.242910e-02
2.240010e-02
2.348320e-02
2.320650e-02
2.303840e-02
2.297890e-02
2.302810e-02
2.386930e-02
2.363040e-02
2.351000e-02
2.350840e-02
2.362540e-02
2.425160e-02
2.404730e-02
2.396930e-02
2.401750e-02
2.419180e-02
2.463000e-02
2.445740e-02
2.441610e-02
2.450620e-02
2.472750e-02
2.240010e-02
2.121190e-02
2.072570e-02
2.094140e-02
2.185920e-02
2.302810e-02
2.199980e-02
2.161090e-02
2.186150e-02
2.275150e-02
2.362540e-02
2.278970e-02
2.251230e-02
2.279330e-02
2.363250e-02
2.419180e-02
2.358150e-02
2.342980e-02
2.373680e-02
2.450230e-02
2.472750e-02
2.437540e-02
2.436360e-02
2.469210e-02
2.536090e-02
2.185920e-02
1.920160e-02
1.866430e-02
2.024700e-02
2.395000e-02
2.275150e-02
2.136060e-02
2.139720e-02
2.286140e-02
2.575320e-02
2.363250e-02
2.317710e-02
2.364230e-02
2.502820e-02
2.733480e-02
2.450230e-02
2.465120e-02
2.539950e-02
2.674740e-02
2.869480e-02
2.536090e-02
2.578280e-02
2.666880e-02
2.801890e-02
2.983330e-02
2.395000e-02
2.698920e-02
2.871410e-02
2.912480e-02
2.822130e-02
2.575320e-02
2.941980e-02
3.237820e-02
3.462820e-02
3.616980e-02
2.733480e-02
3.130650e-02
3.494600e-02
3.825330e-02
4.122860e-02
2.869480e-02
3.264900e-02
3.641750e-02
4.000040e-02
4.339760e-02
2.983330e-02
3.344750e-02
3.679290e-02
3.986930e-02
4.267680e-02
2.822130e-02
4.131620e-02
5.319630e-02
6.386180e-02
7.331250e-02
3.616980e-02
4.752670e-02
5.762080e-02
6.645230e-02
7.402110e-02
4.122860e-02
5.081110e-02
5.913750e-02
6.620770e-02
7.202180e-02
4.339760e-02
5.116950e-02
5.774640e-02
6.312810e-02
6.731470e-02
4.267680e-02
4.860190e-02
5.344740e-02
5.721340e-02
5.989980e-02
7.331250e-02
6.372000e-02
5.500890e-02
4.717920e-02
4.023090e-02
7.402110e-02
6.501190e-02
5.673860e-02
4.920130e-02
4.239990e-02
7.202180e-02
6.422970e-02
5.699710e-02
5.032410e-02
4.421060e-02
6.731470e-02
6.137340e-02
5.578430e-02
5.054750e-02
4.566290e-02
5.989980e-02
5.644290e-02
5.310010e-02
4.987150e-02
4.675690e-02
4.023090e-02
3.673010e-02
3.279330e-02
2.842040e-02
2.361150e-02
4.239990e-02
3.831050e-02
3.416070e-02
2.995070e-02
2.568050e-02
4.421060e-02
3.974710e-02
3.548340e-02
3.141930e-02
2.755490e-02
4.566290e-02
4.104020e-02
3.676130e-02
3.282610e-02
2.923480e-02
4.675690e-02
4.218960e-02
3.799440e-02
3.417120e-02
3.072010e-02
2.361150e-02
2.295930e-02
2.256100e-02
2.241660e-02
2.252610e-02
2.568050e-02
2.488620e-02
2.428640e-02
2.388100e-02
2.367000e-02
2.755490e-02
2.660580e-02
2.581520e-02
2.518300e-02
2.470930e-02
2.923480e-02
2.811820e-02
2.714750e-02
2.632280e-02
2.564400e-02
3.072010e-02
2.942320e-02
2.828330e-02
2.730020e-02
2.647400e-02
2.252610e-02
2.273630e-02
2.277890e-02
2.265380e-02
2.236120e-02
2.367000e-02
2.365040e-02
2.352250e-02
2.328650e-02
2.294220e-02
2.470930e-02
2.448350e-02
2.420590e-02
2.387660e-02
2.349540e-02
2.564400e-02
2.523560e-02
2.482900e-02
2.442400e-02
2.402080e-02
2.647400e-02
2.590670e-02
2.539170e-02
2.492890e-02
2.451840e-02
2.236120e-02
2.340450e-02
2.413680e-02
2.455800e-02
2.466820e-02
2.294220e-02
2.380710e-02
2.439290e-02
2.469950e-02
2.472690e-02
2.349540e-02
2.419380e-02
2.464240e-02
2.484120e-02
2.479030e-02
2.402080e-02
2.456450e-02
2.488530e-02
2.498320e-02
2.485840e-02
2.451840e-02
2.491920e-02
2.512160e-02
2.512560e-02
2.493120e-02
2.463000e-02
2.445740e-02
2.441610e-02
2.450620e-02
2.472750e-02
2.499690e-02
2.487050e-02
2.486620e-02
2.498410e-02
2.522420e-02
2.534870e-02
2.526880e-02
2.529990e-02
2.544210e-02
2.569530e-02
2.568540e-02
2.565240e-02
2.571730e-02
2.588010e-02
2.614090e-02
2.600690e-02
2.602120e-02
2.611830e-02
2.629820e-02
2.656100e-02
2.472750e-02
2.437540e-02
2.436360e-02
2.469210e-02
2.536090e-02
2.522420e-02
2.503790e-02
2.513120e-02
2.550400e-02
2.615630e-02
2.569530e-02
2.564270e-02
2.582040e-02
2.622840e-02
2.686670e-02
2.614090e-02
2.618970e-02
2.643110e-02
2.686530e-02
2.749230e-02
2.656100e-02
2.667880e-02
2.696340e-02
2.741480e-02
2.803300e-02
2.536090e-02
2.578280e-02
2.666880e-02
2.801890e-02
2.983330e-02
2.615630e-02
2.678440e-02
2.773610e-02
2.901120e-02
3.060980e-02
2.686670e-02
2.765520e-02
2.865300e-02
2.986010e-02
3.127650e-02
2.749230e-02
2.839510e-02
2.941950e-02
3.056550e-02
3.183320e-02
2.803300e-02
2.900410e-02
3.003560e-02
3.112770e-02
3.228010e-02
2.983330e-02
3.344750e-02
3.679290e-02
3.986930e-02
4.267680e-02
3.060980e-02
3.399680e-02
3.708340e-02
3.986960e-02
4.235550e-02
3.127650e-02
3.435760e-02
3.714480e-02
3.963790e-02
4.183710e-02
3.183320e-02
3.453000e-02
3.697690e-02
3.917420e-02
4.112170e-02
3.228010e-02
3.451380e-02
3.657990e-02
3.847840e-02
4.020920e-02
4.267680e-02
4.860190e-02
5.344740e-02
5.721340e-02
5.989980e-02
4.235550e-02
4.692870e-02
5.068940e-02
5.363760e-02
5.577340e-02
4.183710e-02
4.533070e-02
4.821230e-02
5.048170e-02
5.213900e-02
4.112170e-02
4.380800e-02
4.601600e-02
4.774560e-02
4.899680e-02
4.020920e-02
4.236060e-02
4.410060e-02
4.542930e-02
4.634670e-02
5.989980e-02
5.644290e-02
5.310010e-02
4.987150e-02
4.675690e-02
5.577340e-02
5.314540e-02
5.049990e-02
4.783700e-02
4.515650e-02
5.213900e-02
5.019660e-02
4.815670e-02
4.601910e-02
4.378400e-02
4.899680e-02
4.759660e-02
4.607030e-02
4.441800e-02
4.263950e-02
4.634670e-02
4.534540e-02
4.424090e-02
4.303340e-02
4.172280e-02
4.675690e-02
4.218960e-02
3.799440e-02
3.417120e-02
3.072010e-02
4.515650e-02
4.119790e-02
3.760740e-02
3.438510e-02
3.153100e-02
4.378400e-02
4.041460e-02
3.736840e-02
3.464550e-02
3.224600e-02
4.263950e-02
3.983970e-02
3.727730e-02
3.495250e-02
3.286510e-02
4.172280e-02
3.947310e-02
3.733420e-02
3.530590e-02
3.338820e-02
3.072010e-02
2.942320e-02
2.828330e-02
2.730020e-02
2.647400e-02
3.153100e-02
3.026310e-02
2.911140e-02
2.807600e-02
2.715670e-02
3.224600e-02
3.095900e-02
2.977660e-02
2.869880e-02
2.772560e-02
3.286510e-02
3.151100e-02
3.027890e-02
2.916880e-02
2.818060e-02
3.338820e-02
3.191920e-02
3.061840e-02
2.948590e-02
2.852160e-02
2.647400e-02
2.590670e-02
2.539170e-02
2.492890e-02
2.451840e-02
2.715670e-02
2.653840e-02
2.598590e-02
2.549920e-02
2.507820e-02
2.772560e-02
2.707970e-02
2.650640e-02
2.600570e-02
2.557760e-02
2.818060e-02
2.753040e-02
2.695310e-02
2.644850e-02
2.601660e-02
2.852160e-02
2.789070e-02
2.732600e-02
2.682750e-02
2.639520e-02
2.451840e-02
2.491920e-02
2.512160e-02
2.512560e-02
2.493120e-02
2.507820e-02
2.526130e-02
2.531740e-02
2.524650e-02
2.504860e-02
2.557760e-02
2.556820e-02
2.549740e-02
2.536520e-02
2.517170e-02
2.601660e-02
2.583970e-02
2.566140e-02
2.548170e-02
2.530070e-02
2.639520e-02
2.607590e-02
2.580960e-02
2.559600e-02
2.543540e-02
2.600690e-02
2.602120e-02
2.611830e-02
2.629820e-02
2.656100e-02
2.630990e-02
2.636050e-02
2.648360e-02
2.667930e-02
2.694750e-02
2.659390e-02
2.667710e-02
2.682330e-02
2.703250e-02
2.730480e-02
2.685910e-02
2.697100e-02
2.713720e-02
2.735790e-02
2.763300e-02
2.710540e-02
2.724220e-02
2.742550e-02
2.765550e-02
2.793200e-02
2.656100e-02
2.667880e-02
2.696340e-02
2.741480e-02
2.803300e-02
2.694750e-02
2.712090e-02
2.743610e-02
2.789330e-02
2.849240e-02
2.730480e-02
2.752430e-02
2.786210e-02
2.831830e-02
2.889300e-02
2.763300e-02
2.788900e-02
2.824130e-02
2.868980e-02
2.923460e-02
2.793200e-02
2.821510e-02
2.857370e-02
2.900780e-02
2.951740e-02
2.803300e-02
2.900410e-02
3.003560e-02
3.112770e-02
3.228010e-02
2.849240e-02
2.944520e-02
3.044040e-02
3.147790e-02
3.255770e-02
2.889300e-02
2.980950e-02
3.075480e-02
3.172890e-02
3.273180e-02
2.923460e-02
3.009670e-02
3.097870e-02
3.188060e-02
3.280230e-02
2.951740e-02
3.030710e-02
3.111230e-02
3.193310e-02
3.276940e-02
3.228010e-02
3.451380e-02
3.657990e-02
3.847840e-02
4.020920e-02
3.255770e-02
3.449970e-02
3.628410e-02
3.791090e-02
3.938030e-02
3.273180e-02
3.441710e-02
3.595600e-02
3.734850e-02
3.859460e-02
3.280230e-02
3.426630e-02
3.559580e-02
3.679110e-02
3.785210e-02
3.276940e-02
3.404700e-02
3.520350e-02
3.623870e-02
3.715280e-02
4.020920e-02
4.236060e-02
4.410060e-02
4.542930e-02
4.634670e-02
3.938030e-02
4.116890e-02
4.260290e-02
4.368220e-02
4.440690e-02
3.859460e-02
4.006770e-02
4.123960e-02
4.211040e-02
4.268000e-02
3.785210e-02
3.905680e-02
4.001070e-02
4.071380e-02
4.116620e-02
3.715280e-02
3.813620e-02
3.891610e-02
3.949240e-02
3.986520e-02
4.634670e-02
4.534540e-02
4.424090e-02
4.303340e-02
4.172280e-02
4.440690e-02
4.356600e-02
4.262480e-02
4.158320e-02
4.044130e-02
4.268000e-02
4.199590e-02
4.121340e-02
4.033230e-02
3.935280e-02
4.116620e-02
4.063510e-02
4.000660e-02
3.928070e-02
3.845730e-02
3.986520e-02
3.948350e-02
3.900450e-02
3.842830e-02
3.775490e-02
4.172280e-02
3.947310e-02
3.733420e-02
3.530590e-02
3.338820e-02
4.044130e-02
3.850990e-02
3.668430e-02
3.496460e-02
3.335070e-02
3.935280e-02
3.770600e-02
3.615050e-02
3.468610e-02
3.331300e-02
3.845730e-02
3.706150e-02
3.573250e-02
3.447040e-02
3.327520e-02
3.775490e-02
3.657630e-02
3.543050e-02
3.431740e-02
3.323710e-02
3.338820e-02
3.191920e-02
3.061840e-02
2.948590e-02
2.852160e-02
3.335070e-02
3.203170e-02
3.084260e-02
2.978350e-02
2.885440e-02
3.331300e-02
3.211330e-02
3.101670e-02
3.002330e-02
2.913300e-02
3.327520e-02
3.216410e-02
3.114080e-02
3.020530e-02
2.935760e-02
3.323710e-02
3.218400e-02
3.121480e-02
3.032950e-02
2.952810e-02
2.852160e-02
2.789070e-02
2.732600e-02
2.682750e-02
2.639520e-02
2.885440e-02
2.821760e-02
2.764400e-02
2.713350e-02
2.668610e-02
2.913300e-02
2.849390e-02
2.791430e-02
2.739450e-02
2.693420e-02
2.935760e-02
2.871940e-02
2.813700e-02
2.761030e-02
2.713940e-02
2.952810e-02
2.889420e-02
2.831190e-02
2.778110e-02
2.730180e-02
2.639520e-02
2.607590e-02
2.580960e-02
2.559600e-02
2.543540e-02
2.668610e-02
2.632840e-02
2.602300e-02
2.577010e-02
2.556970e-02
2.693420e-02
2.654970e-02
2.621500e-02
2.593020e-02
2.569530e-02
2.713940e-02
2.673990e-02
2.638550e-02
2.607620e-02
2.581220e-02
2.730180e-02
2.689900e-02
2.653450e-02
2.620830e-02
2.592030e-02
2.710540e-02
2.724220e-02
2.742550e-02
2.765550e-02
2.793200e-02
2.733260e-02
2.748710e-02
2.768190e-02
2.791710e-02
2.819280e-02
2.754220e-02
2.771180e-02
2.791570e-02
2.815390e-02
2.842630e-02
2.773410e-02
2.791640e-02
2.812700e-02
2.836570e-02
2.863260e-02