<?xml version="1.0"?>
<VTKFile type="UnstructuredGrid" version="0.1" byte_order="LittleEndian" compressor="vtkZLibDataCompressor">
<UnstructuredGrid>
<Piece NumberOfPoints="2500" NumberOfCells="1600">
<Points>
<DataArray type="Float32" NumberOfComponents="3" format="ascii">
-3.630000e+00 0.000000e+00 0.000000e+00
-3.448500e+00 0.000000e+00 0.000000e+00
-3.267000e+00 0.000000e+00 0.000000e+00
-3.085500e+00 0.000000e+00 0.000000e+00
-2.904000e+00 0.000000e+00 0.000000e+00
-3.630000e+00 1.282500e-01 0.000000e+00
-3.448500e+00 1.282500e-01 0.000000e+00
-3.267000e+00 1.282500e-01 0.000000e+00
-3.085500e+00 1.282500e-01 0.000000e+00
-2.904000e+00 1.282500e-01 0.000000e+00
-3.630000e+00 2.565000e-01 0.000000e+00
-3.448500e+00 2.565000e-01 0.000000e+00
-3.267000e+00 2.565000e-01 0.000000e+00
-3.085500e+00 2.565000e-01 0.000000e+00
-2.904000e+00 2.565000e-01 0.000000e+00
-3.630000e+00 3.847500e-01 0.000000e+00
-3.448500e+00 3.847500e-01 0.000000e+00
-3.267000e+00 3.847500e-01 0.000000e+00
-3.085500e+00 3.847500e-01 0.000000e+00
-2.904000e+00 3.847500e-01 0.000000e+00
-3.630000e+00 5.130000e-01 0.000000e+00
-3.448500e+00 5.130000e-01 0.000000e+00
-3.267000e+00 5.130000e-01 0.000000e+00
-3.085500e+00 5.130000e-01 0.000000e+00
-2.904000e+00 5.130000e-01 0.000000e+00
-2.904000e+00 0.000000e+00 0.000000e+00
-2.722500e+00 0.000000e+00 0.000000e+00
-2.541000e+00 0.000000e+00 0.000000e+00
-2.359500e+00 0.000000e+00 0.000000e+00
-2.178000e+00 0.000000e+00 0.000000e+00
-2.904000e+00 1.282500e-01 0.000000e+00
-2.722500e+00 1.282500e-01 0.000000e+00
-2.541000e+00 1.282500e-01 0.000000e+00
-2.359500e+00 1.282500e-01 0.000000e+00
-2.178000e+00 1.282500e-01 0.000000e+00
-2.904000e+00 2.565000e-01 0.000000e+00
-2.722500e+00 2.565000e-01 0.000000e+00
-2.541000e+00 2.565000e-01 0.000000e+00
-2.359500e+00 2.565000e-01 0.000000e+00
-2.178000e+00 2.565000e-01 0.000000e+00
-2.904000e+00 3.847500e-01 0.000000e+00
-2.722500e+00 3.847500e-01 0.000000e+00
-2.541000e+00 3.847500e-01 0.000000e+00
-2.359500e+00 3.847500e-01 0.000000e+00
-2.178000e+00 3.847500e-01 0.000000e+00
-2.904000e+00 5.130000e-01 0.000000e+00
-2.722500e+00 5.130000e-01 0.000000e+00
-2.541000e+00 5.130000e-01 0.000000e+00
-2.359500e+00 5.130000e-01 0.000000e+00
-2.178000e+00 5.130000e-01 0.000000e+00
-2.178000e+00 0.000000e+00 0.000000e+00
-1.996500e+00 0.000000e+00 0.000000e+00
-1.815000e+00 0.000000e+00 0.000000e+00
-1.633500e+00 0.000000e+00 0.000000e+00
-1.452000e+00 0.000000e+00 0.000000e+00
-2.178000e+00 1.282500e-01 0.000000e+00
-1.996500e+00 1.282500e-01 0.000000e+00
-1.815000e+00 1.282500e-01 0.000000e+00
-1.633500e+00 1.282500e-01 0.000000e+00
-1.452000e+00 1.282500e-01 0.000000e+00
-2.178000e+00 2.565000e-01 0.000000e+00
-1.996500e+00 2.565000e-01 0.000000e+00
-1.815000e+00 2.565000e-01 0.000000e+00
-1.633500e+00 2.565000e-01 0.000000e+00
-1.452000e+00 2.565000e-01 0.000000e+00
-2.178000e+00 3.847500e-01 0.000000e+00
-1.996500e+00 3.847500e-01 0.000000e+00
-1.815000e+00 3.847500e-01 0.000000e+00
-1.633500e+00 3.847500e-01 0.000000e+00
-1.452000e+00 3.847500e-01 0.000000e+00
-2.178000e+00 5.130000e-01 0.000000e+00
-1.996500e+00 5.130000e-01 0.000000e+00
-1.815000e+00 5.130000e-01 0.000000e+00
-1.633500e+00 5.130000e-01 0.000000e+00
-1.452000e+00 5.130000e-01 0.000000e+00
-1.452000e+00 0.000000e+00 0.000000e+00
-1.270500e+00 0.000000e+00 0.000000e+00
-1.089000e+00 0.000000e+00 0.000000e+00
-9.075000e-01 0.000000e+00 0.000000e+00
-7.260000e-01 0.000000e+00 0.000000e+00
-1.452000e+00 1.282500e-01 0.000000e+00
-1.270500e+00 1.282500e-01 0.000000e+00
-1.089000e+00 1.282500e-01 0.000000e+00
-9.075000e-01 1.282500e-01 0.000000e+00
-7.260000e-01 1.282500e-01 0.000000e+00
-1.452000e+00 2.565000e-01 0.000000e+00
-1.270500e+00 2.565000e-01 0.000000e+00
-1.089000e+00 2.565000e-01 0.000000e+00
-9.075000e-01 2.565000e-01 0.000000e+00
-7.260000e-01 2.565000e-01 0.000000e+00
-1.452000e+00 3.847500e-01 0.000000e+00
-1.270500e+00 3.847500e-01 0.000000e+00
-1.089000e+00 3.847500e-01 0.000000e+00
-9.075000e-01 3.847500e-01 0.000000e+00
-7.260000e-01 3.847500e-01 0.000000e+00
-1.452000e+00 5.130000e-01 0.000000e+00
-1.270500e+00 5.130000e-01 0.000000e+00
-1.089000e+00 5.130000e-01 0.000000e+00
-9.075000e-01 5.130000e-01 0.000000e+00
-7.260000e-01 5.130000e-01 0.000000e+00
-7.260000e-01 0.000000e+00 0.000000e+00
-5.445000e-01 0.000000e+00 0.000000e+00
-3.630000e-01 0.000000e+00 0.000000e+00
-1.815000e-01 0.000000e+00 0.000000e+00
0.000000e+00 0.000000e+00 0.000000e+00
-7.260000e-01 1.282500e-01 0.000000e+00
-5.445000e-01 1.282500e-01 0.000000e+00
-3.630000e-01 1.282500e-01 0.000000e+00
-1.815000e-01 1.282500e-01 0.000000e+00
0.000000e+00 1.282500e-01 0.000000e+00
-7.260000e-01 2.565000e-01 0.000000e+00
-5.445000e-01 2.565000e-01 0.000000e+00
-3.630000e-01 2.565000e-01 0.000000e+00
-1.815000e-01 2.565000e-01 0.000000e+00
0.000000e+00 2.565000e-01 0.000000e+00
-7.260000e-01 3.847500e-01 0.000000e+00
-5.445000e-01 3.847500e-01 0.000000e+00
-3.630000e-01 3.847500e-01 0.000000e+00
-1.815000e-01 3.847500e-01 0.000000e+00
0.000000e+00 3.847500e-01 0.000000e+00
-7.260000e-01 5.130000e-01 0.000000e+00
-5.445000e-01 5.130000e-01 0.000000e+00
-3.630000e-01 5.130000e-01 0.000000e+00
-1.815000e-01 5.130000e-01 0.000000e+00
0.000000e+00 5.130000e-01 0.000000e+00
0.000000e+00 0.000000e+00 0.000000e+00
1.815000e-01 0.000000e+00 0.000000e+00
3.630000e-01 0.000000e+00 0.000000e+00
5.445000e-01 0.000000e+00 0.000000e+00
7.260000e-01 0.000000e+00 0.000000e+00
0.000000e+00 1.282500e-01 0.000000e+00
1.815000e-01 1.282500e-01 0.000000e+00
3.630000e-01 1.282500e-01 0.000000e+00
5.445000e-01 1.282500e-01 0.000000e+00
7.260000e-01 1.282500e-01 0.000000e+00
0.000000e+00 2.565000e-01 0.000000e+00
1.815000e-01 2.565000e-01 0.000000e+00
3.630000e-01 2.565000e-01 0.000000e+00
5.445000e-01 2.565000e-01 0.000000e+00
7.260000e-01 2.565000e-01 0.000000e+00
0.000000e+00 3.847500e-01 0.000000e+00
1.815000e-01 3.847500e-01 0.000000e+00
3.630000e-01 3.847500e-01 0.000000e+00
5.445000e-01 3.847500e-01 0.000000e+00
7.260000e-01 3.847500e-01 0.000000e+00
0.000000e+00 5.130000e-01 0.000000e+00
1.815000e-01 5.130000e-01 0.000000e+00
3.630000e-01 5.130000e-01 0.000000e+00
5.445000e-01 5.130000e-01 0.000000e+00
7.260000e-01 5.130000e-01 0.000000e+00
7.260000e-01 0.000000e+00 0.000000e+00
9.075000e-01 0.000000e+00 0.000000e+00
1.089000e+00 0.000000e+00 0.000000e+00
1.270500e+00 0.000000e+00 0.000000e+00
1.452000e+00 0.000000e+00 0.000000e+00
7.260000e-01 1.282500e-01 0.000000e+00
9.075000e-01 1.282500e-01 0.000000e+00
1.089000e+00 1.282500e-01 0.000000e+00
1.270500e+00 1.282500e-01 0.000000e+00
1.452000e+00 1.282500e-01 0.000000e+00
7.260000e-01 2.565000e-01 0.000000e+00
9.075000e-01 2.565000e-01 0.000000e+00
1.089000e+00 2.565000e-01 0.000000e+00
1.270500e+00 2.565000e-01 0.000000e+00
1.452000e+00 2.565000e-01 0.000000e+00
7.260000e-01 3.847500e-01 0.000000e+00
9.075000e-01 3.847500e-01 0.000000e+00
1.089000e+00 3.847500e-01 0.000000e+00
1.270500e+00 3.847500e-01 0.000000e+00
1.452000e+00 3.847500e-01 0.000000e+00
7.260000e-01 5.130000e-01 0.000000e+00
9.075000e-01 5.130000e-01 0.000000e+00
1.089000e+00 5.130000e-01 0.000000e+00
1.270500e+00 5.130000e-01 0.000000e+00
1.452000e+00 5.130000e-01 0.000000e+00
1.452000e+00 0.000000e+00 0.000000e+00
1.633500e+00 0.000000e+00 0.000000e+00
1.815000e+00 0.000000e+00 0.000000e+00
1.996500e+00 0.000000e+00 0.000000e+00
2.178000e+00 0.000000e+00 0.000000e+00
1.452000e+00 1.282500e-01 0.000000e+00
1.633500e+00 1.282500e-01 0.000000e+00
1.815000e+00 1.282500e-01 0.000000e+00
1.996500e+00 1.282500e-01 0.000000e+00
2.178000e+00 1.282500e-01 0.000000e+00
1.452000e+00 2.565000e-01 0.000000e+00
1.633500e+00 2.565000e-01 0.000000e+00
1.815000e+00 2.565000e-01 0.000000e+00
1.996500e+00 2.565000e-01 0.000000e+00
2.178000e+00 2.565000e-01 0.000000e+00
1.452000e+00 3.847500e-01 0.000000e+00
1.633500e+00 3.847500e-01 0.000000e+00
1.815000e+00 3.847500e-01 0.000000e+00
1.996500e+00 3.847500e-01 0.000000e+00
2.178000e+00 3.847500e-01 0.000000e+00
1.452000e+00 5.130000e-01 0.000000e+00
1.633500e+00 5.130000e-01 0.000000e+00
1.815000e+00 5.130000e-01 0.000000e+00
1.996500e+00 5.130000e-01 0.000000e+00
2.178000e+00 5.130000e-01 0.000000e+00
2.178000e+00 0.000000e+00 0.000000e+00
2.359500e+00 0.000000e+00 0.000000e+00
2.541000e+00 0.000000e+00 0.000000e+00
2.722500e+00 0.000000e+00 0.000000e+00
2.904000e+00 0.000000e+00 0.000000e+00
2.178000e+00 1.282500e-01 0.000000e+00
2.359500e+00 1.282500e-01 0.000000e+00
2.541000e+00 1.282500e-01 0.000000e+00
2.722500e+00 1.282500e-01 0.000000e+00
2.904000e+00 1.282500e-01 0.000000e+00
2.178000e+00 2.565000e-01 0.000000e+00
2.359500e+00 2.565000e-01 0.000000e+00
2.541000e+00 2.565000e-01 0.000000e+00
2.722500e+00 2.565000e-01 0.000000e+00
2.904000e+00 2.565000e-01 0.000000e+00
2.178000e+00 3.847500e-01 0.000000e+00
2.359500e+00 3.847500e-01 0.000000e+00
2.541000e+00 3.847500e-01 0.000000e+00
2.722500e+00 3.847500e-01 0.000000e+00
2.904000e+00 3.847500e-01 0.000000e+00
2.178000e+00 5.130000e-01 0.000000e+00
2.359500e+00 5.130000e-01 0.000000e+00
2.541000e+00 5.130000e-01 0.000000e+00
2.722500e+00 5.130000e-01 0.000000e+00
2.904000e+00 5.130000e-01 0.000000e+00
2.904000e+00 0.000000e+00 0.000000e+00
3.085500e+00 0.000000e+00 0.000000e+00
3.267000e+00 0.000000e+00 0.000000e+00
3.448500e+00 0.000000e+00 0.000000e+00
3.630000e+00 0.000000e+00 0.000000e+00
2.904000e+00 1.282500e-01 0.000000e+00
3.085500e+00 1.282500e-01 0.000000e+00
3.267000e+00 1.282500e-01 0.000000e+00
3.448500e+00 1.282500e-01 0.000000e+00
3.630000e+00 1.282500e-01 0.000000e+00
2.904000e+00 2.565000e-01 0.000000e+00
3.085500e+00 2.565000e-01 0.000000e+00
3.267000e+00 2.565000e-01 0.000000e+00
3.448500e+00 2.565000e-01 0.000000e+00
3.630000e+00 2.565000e-01 0.000000e+00
2.904000e+00 3.847500e-01 0.000000e+00
3.085500e+00 3.847500e-01 0.000000e+00
3.267000e+00 3.847500e-01 0.000000e+00
3.448500e+00 3.847500e-01 0.000000e+00
3.630000e+00 3.847500e-01 0.000000e+00
2.904000e+00 5.130000e-01 0.000000e+00
[...]
<PointData>
<DataArray type="Float32" Name="V1" format="ascii">
0.000000e+00
0.000000e+00
0.000000e+00
0.000000e+00
0.000000e+00
1.264110e-02
1.157200e-02
1.070650e-02
1.004480e-02
9.586670e-03
2.028400e-02
1.894000e-02
1.774960e-02
1.671290e-02
1.582990e-02
2.292870e-02
2.210390e-02
2.112920e-02
2.000440e-02
1.872960e-02
2.057510e-02
2.106390e-02
2.084530e-02
1.991930e-02
1.828600e-02
0.000000e+00
0.000000e+00
0.000000e+00
0.000000e+00
0.000000e+00
9.586670e-03
8.968040e-03
7.923780e-03
6.453900e-03
4.558380e-03
1.582990e-02
1.486920e-02
1.321150e-02
1.085700e-02
7.805580e-03
1.872960e-02
1.770330e-02
1.586320e-02
1.320930e-02
9.741620e-03
1.828600e-02
1.747060e-02
1.587890e-02
1.351080e-02
1.036650e-02
0.000000e+00
0.000000e+00
0.000000e+00
0.000000e+00
0.000000e+00
4.558380e-03
2.098780e-03
5.163450e-04
-1.889350e-04
-1.705860e-05
7.805580e-03
3.612040e-03
1.026730e-03
4.965310e-05
6.808170e-04
9.741620e-03
4.539760e-03
1.531140e-03
7.157650e-04
2.093630e-03
1.036650e-02
4.881960e-03
2.029600e-03
1.809400e-03
4.221370e-03
0.000000e+00
0.000000e+00
0.000000e+00
0.000000e+00
0.000000e+00
-1.705860e-05
-7.655380e-03
-1.514630e-02
-2.248980e-02
-2.968590e-02
6.808170e-04
-1.213510e-02
-2.450370e-02
-3.642490e-02
-4.789860e-02
2.093630e-03
-1.343930e-02
-2.807220e-02
-4.180520e-02
-5.463830e-02
4.221370e-03
-1.156780e-02
-2.585180e-02
-3.863080e-02
-4.990480e-02
0.000000e+00
0.000000e+00
0.000000e+00
0.000000e+00
0.000000e+00
-2.968590e-02
-3.624940e-02
-4.252950e-02
-4.852620e-02
-5.423940e-02
-4.789860e-02
-5.878340e-02
-6.931250e-02
-7.948580e-02
-8.930350e-02
-5.463830e-02
-6.760190e-02
-8.034880e-02
-9.287890e-02
-1.051920e-01
-4.990480e-02
-6.270500e-02
-7.563850e-02
-8.870540e-02
-1.019060e-01
0.000000e+00
0.000000e+00
0.000000e+00
0.000000e+00
0.000000e+00
-5.423940e-02
-5.045710e-02
-4.434850e-02
-3.591360e-02
-2.515250e-02
-8.930350e-02
-8.198220e-02
-7.132220e-02
-5.732350e-02
-3.998610e-02
-1.051920e-01
-9.457530e-02
-8.092110e-02
-6.422960e-02
-4.450090e-02
-1.019060e-01
-8.823640e-02
-7.314510e-02
-5.663190e-02
-3.869670e-02
0.000000e+00
0.000000e+00
0.000000e+00
0.000000e+00
0.000000e+00
-2.515250e-02
-1.930290e-02
-1.426980e-02
-1.005320e-02
-6.653140e-03
-3.998610e-02
-3.049780e-02
-2.246260e-02
-1.588070e-02
-1.075200e-02
-4.450090e-02
-3.358470e-02
-2.457860e-02
-1.748250e-02
-1.229650e-02
-3.869670e-02
-2.856360e-02
-2.061760e-02
-1.485870e-02
-1.128680e-02
0.000000e+00
0.000000e+00
0.000000e+00
0.000000e+00
0.000000e+00
-6.653140e-03
-1.161110e-03
2.757820e-03
5.103660e-03
5.876410e-03
-1.075200e-02
-1.753350e-03
4.697610e-03
8.600900e-03
9.956510e-03
-1.229650e-02
-1.776730e-03
5.819350e-03
1.049170e-02
1.224030e-02
-1.128680e-02
-1.231230e-03
6.123060e-03
1.077610e-02
1.272780e-02
0.000000e+00
0.000000e+00
0.000000e+00
0.000000e+00
0.000000e+00
5.876410e-03
7.244880e-03
8.469290e-03
9.549630e-03
1.048590e-02
9.956510e-03
1.210910e-02
1.403660e-02
1.573900e-02
1.721640e-02
1.224030e-02
1.459260e-02
1.670190e-02
1.856820e-02
2.019150e-02
1.272780e-02
1.469540e-02
1.646510e-02
1.803700e-02
1.941110e-02
0.000000e+00
0.000000e+00
0.000000e+00
0.000000e+00
0.000000e+00
1.048590e-02
1.117830e-02
1.196240e-02
1.283840e-02
1.380620e-02
1.721640e-02
1.846260e-02
1.976190e-02
2.111420e-02
2.251970e-02
2.019150e-02
2.185300e-02
2.339830e-02
2.482750e-02
2.614060e-02
1.941110e-02
2.134940e-02
2.287180e-02
2.397830e-02
2.466900e-02
2.057510e-02
2.106390e-02
2.084530e-02
1.991930e-02
1.828600e-02
2.078850e-02
2.048730e-02
1.992320e-02
1.909610e-02
1.800620e-02
2.103660e-02
2.031160e-02
1.959080e-02
1.887410e-02
1.816160e-02
2.131930e-02
2.053690e-02
1.984820e-02
1.925330e-02
1.875220e-02
2.163650e-02
2.116300e-02
2.069540e-02
2.023380e-02
1.977800e-02
1.828600e-02
1.747060e-02
1.587890e-02
1.351080e-02
1.036650e-02
1.800620e-02
1.700460e-02
1.560370e-02
1.380350e-02
1.160390e-02
1.816160e-02
1.699440e-02
1.576590e-02
1.447610e-02
1.312510e-02
1.875220e-02
1.743990e-02
1.636540e-02
1.552870e-02
1.492990e-02
1.977800e-02
1.834110e-02
1.740230e-02
1.696130e-02
1.701830e-02
1.036650e-02
4.881960e-03
2.029600e-03
1.809400e-03
4.221370e-03
1.160390e-02
6.382300e-03
4.034740e-03
4.561260e-03
7.961850e-03
1.312510e-02
7.968540e-03
6.049620e-03
7.368320e-03
1.192460e-02
1.492990e-02
9.640680e-03
8.074260e-03
1.023060e-02
1.610970e-02
1.701830e-02
1.139870e-02
1.010860e-02
1.314810e-02
2.051710e-02
4.221370e-03
-1.156780e-02
-2.585180e-02
-3.863080e-02
-4.990480e-02
7.961850e-03
-5.559900e-03
-1.725730e-02
-2.713030e-02
-3.517880e-02
1.192460e-02
3.239290e-04
-9.040980e-03
-1.617010e-02
-2.106340e-02
1.610970e-02
6.083730e-03
-1.202950e-03
-5.750330e-03
-7.558400e-03
2.051710e-02
1.171950e-02
6.256800e-03
4.129020e-03
5.336140e-03
-4.990480e-02
-6.270500e-02
-7.563850e-02
-8.870540e-02
-1.019060e-01
-3.517880e-02
-4.684450e-02
-6.019400e-02
-7.522740e-02
-9.194470e-02
-2.106340e-02
-3.013260e-02
-4.163790e-02
-5.557930e-02
-7.195670e-02
-7.558400e-03
-1.256930e-02
-1.997010e-02
-2.976090e-02
-4.194150e-02
5.336140e-03
5.845380e-03
4.809270e-03
2.227810e-03
-1.899010e-03
-1.019060e-01
-8.823640e-02
-7.314510e-02
-5.663190e-02
-3.869670e-02
-9.194470e-02
-7.756730e-02
-6.251070e-02
-4.677500e-02
-3.036020e-02
-7.195670e-02
-5.917840e-02
-4.625240e-02
-3.317850e-02
-1.995670e-02
-4.194150e-02
-3.306980e-02
-2.437010e-02
-1.584230e-02
-7.486390e-03
-1.899010e-03
7.586580e-04
3.136190e-03
5.233580e-03
7.050820e-03
-3.869670e-02
-2.856360e-02
-2.061760e-02
-1.485870e-02
-1.128680e-02
-3.036020e-02
-2.134690e-02
-1.497220e-02
-1.123610e-02
-1.013840e-02
-1.995670e-02
-1.262410e-02
-8.160880e-03
-6.566950e-03
-7.842340e-03
-7.486390e-03
-2.395190e-03
-1.835080e-04
-8.513340e-04
-4.398670e-03
7.050820e-03
9.339880e-03
8.959870e-03
5.910790e-03
1.926360e-04
-1.128680e-02
-1.231230e-03
6.123060e-03
1.077610e-02
1.272780e-02
-1.013840e-02
6.616270e-04
8.274490e-03
1.270020e-02
1.393870e-02
-7.842340e-03
2.997760e-03
1.047370e-02
1.458550e-02
1.533320e-02
-4.398670e-03
5.777160e-03
1.272070e-02
1.643210e-02
1.691110e-02
1.926360e-04
8.999830e-03
1.501560e-02
1.823980e-02
1.867250e-02
1.272780e-02
1.469540e-02
1.646510e-02
1.803700e-02
1.941110e-02
1.393870e-02
1.503650e-02
1.616970e-02
1.733840e-02
1.854250e-02
1.533320e-02
1.573150e-02
1.633930e-02
1.715670e-02
1.818370e-02
1.691110e-02
1.678040e-02
1.697410e-02
1.749220e-02
1.833460e-02
1.867250e-02
1.818330e-02
1.807410e-02
1.834470e-02
1.899530e-02
1.941110e-02
2.134940e-02
2.287180e-02
2.397830e-02
2.466900e-02
1.854250e-02
2.056020e-02
2.207940e-02
2.310020e-02
2.362270e-02
1.818370e-02
2.028840e-02
2.180720e-02
2.274010e-02
2.308700e-02
1.833460e-02
2.053420e-02
2.205530e-02
2.289780e-02
2.306190e-02
1.899530e-02
2.129740e-02
2.282350e-02
2.357350e-02
2.354750e-02
2.163650e-02
2.116300e-02
2.069540e-02
2.023380e-02
1.977800e-02
2.197900e-02
2.141970e-02
2.098020e-02
2.066060e-02
2.046080e-02
2.233590e-02
2.175960e-02
2.137210e-02
2.117350e-02
2.116380e-02
2.270730e-02
2.218270e-02
2.187110e-02
2.177260e-02
2.188710e-02
2.309330e-02
2.268900e-02
2.247720e-02
2.245770e-02
2.263070e-02
1.977800e-02
1.834110e-02
1.740230e-02
1.696130e-02
1.701830e-02
2.046080e-02
1.892170e-02
1.813840e-02
1.811080e-02
1.883900e-02
2.116380e-02
1.960320e-02
1.896280e-02
1.924250e-02
2.044240e-02
2.188710e-02
2.038570e-02
1.987540e-02
2.035630e-02
2.182840e-02
2.263070e-02
2.126910e-02
2.087630e-02
2.145230e-02
2.299700e-02
1.701830e-02
1.139870e-02
1.010860e-02
1.314810e-02
2.051710e-02
1.883900e-02
1.355330e-02
1.257200e-02
1.589520e-02
2.352270e-02
2.044240e-02
1.579360e-02
1.513270e-02
1.845980e-02
2.577490e-02
2.182840e-02
1.811950e-02
1.779070e-02
2.084210e-02
2.727350e-02
2.299700e-02
2.053100e-02
2.054600e-02
2.304190e-02
2.801870e-02
2.051710e-02
1.171950e-02
6.256800e-03
4.129020e-03
5.336140e-03
2.352270e-02
1.742490e-02
1.456100e-02
1.493110e-02
1.853520e-02
2.577490e-02
2.223470e-02
2.151730e-02
2.362260e-02
2.855060e-02
2.727350e-02
2.614900e-02
2.712560e-02
3.020330e-02
3.538220e-02
2.801870e-02
2.916770e-02
3.138590e-02
3.467340e-02
3.903010e-02
5.336140e-03
5.845380e-03
4.809270e-03
2.227810e-03
-1.899010e-03
1.853520e-02
2.550440e-02
3.153300e-02
3.662080e-02
4.076800e-02
2.855060e-02
3.995950e-02
5.063150e-02
6.056640e-02
6.976430e-02
3.538220e-02
4.921070e-02
6.210480e-02
7.406460e-02
8.508990e-02
3.903010e-02
5.325790e-02
6.595300e-02
7.711530e-02
8.674490e-02
-1.899010e-03
7.586580e-04
3.136190e-03
5.233580e-03
7.050820e-03
4.076800e-02
3.392950e-02
2.821040e-02
2.361050e-02
2.012990e-02
6.976430e-02
5.757540e-02
4.710180e-02
3.834360e-02
3.130080e-02
8.508990e-02
7.169620e-02
5.981050e-02
4.943290e-02
4.056340e-02
8.674490e-02
7.629190e-02
6.633640e-02
5.687830e-02
4.791780e-02
7.050820e-03
9.339880e-03
8.959870e-03
5.910790e-03
1.926360e-04
2.012990e-02
1.950280e-02
1.702160e-02
1.268640e-02
6.497180e-03
3.130080e-02
2.807360e-02
2.378830e-02
1.844490e-02
1.204330e-02
4.056340e-02
3.505250e-02
2.926010e-02
2.318630e-02
1.683090e-02
4.791780e-02
4.043940e-02
3.343700e-02
2.691050e-02
2.086000e-02
1.926360e-04
8.999830e-03
1.501560e-02
1.823980e-02
1.867250e-02
6.497180e-03
1.272460e-02
1.701530e-02
1.936910e-02
1.978610e-02
1.204330e-02
1.614070e-02
1.898460e-02
2.057500e-02
2.091190e-02
1.683090e-02
1.924790e-02
2.092340e-02
2.185740e-02
2.204980e-02
2.086000e-02
2.204640e-02
2.283190e-02
2.321640e-02
2.319980e-02
1.867250e-02
1.818330e-02
1.807410e-02
1.834470e-02
1.899530e-02
1.978610e-02
1.926370e-02
1.903560e-02
1.910170e-02
1.946220e-02
2.091190e-02
2.035550e-02
2.002250e-02
1.991280e-02
2.002640e-02
2.204980e-02
2.145880e-02
2.103490e-02
2.077790e-02
2.068800e-02
2.319980e-02
2.257360e-02
2.207270e-02
2.169710e-02
2.144690e-02
1.899530e-02
2.129740e-02
2.282350e-02
2.357350e-02
2.354750e-02
1.946220e-02
2.151780e-02
2.288000e-02
2.354880e-02
2.352420e-02
2.002640e-02
2.183650e-02
2.303270e-02
2.361520e-02
2.358380e-02
2.068800e-02
2.225350e-02
2.328170e-02
2.377260e-02
2.372610e-02
2.144690e-02
2.276890e-02
2.362690e-02
2.402110e-02
2.395130e-02
2.309330e-02
2.268900e-02
2.247720e-02
2.245770e-02
2.263070e-02
2.348320e-02
2.314260e-02
2.298790e-02
2.301910e-02
2.323640e-02
2.386930e-02
2.359240e-02
2.349120e-02
2.356560e-02
2.381580e-02
2.425160e-02
2.403850e-02
2.398710e-02
2.409720e-02
2.436900e-02
2.463000e-02
2.448090e-02
2.447560e-02
2.461390e-02
2.489600e-02
2.263070e-02
2.126910e-02
2.087630e-02
2.145230e-02
2.299700e-02
2.323640e-02
2.215120e-02
2.189570e-02
2.246990e-02
2.387370e-02
2.381580e-02
2.300710e-02
2.288220e-02
2.344130e-02
2.468420e-02
2.436900e-02
2.383660e-02
2.383580e-02
2.436650e-02
2.542870e-02
2.489600e-02
2.463990e-02
2.475640e-02
2.524550e-02
2.610710e-02
2.299700e-02
2.053100e-02
2.054600e-02
2.304190e-02
2.801870e-02
2.387370e-02
2.248810e-02
2.286120e-02
2.499280e-02
2.888300e-02
2.468420e-02
2.419200e-02
2.485790e-02
2.668200e-02
2.966430e-02
2.542870e-02
2.564250e-02
2.653610e-02
2.810950e-02
3.036270e-02
2.610710e-02
2.683980e-02
2.789580e-02
2.927530e-02
3.097810e-02
2.801870e-02
2.916770e-02
3.138590e-02
3.467340e-02
3.903010e-02
2.888300e-02
3.128200e-02
3.417900e-02
3.757420e-02
4.146740e-02
2.966430e-02
3.286040e-02
3.613940e-02
3.950140e-02
4.294620e-02
3.036270e-02
3.390300e-02
3.726710e-02
4.045500e-02
4.346670e-02
3.097810e-02
3.440970e-02
3.756200e-02
4.043500e-02
4.302860e-02
3.903010e-02
5.325790e-02
6.595300e-02
7.711530e-02
8.674490e-02
4.146740e-02
5.374340e-02
6.479350e-02
7.461770e-02
8.321600e-02
4.294620e-02
5.311080e-02
6.227770e-02
7.044680e-02
7.761820e-02
4.346670e-02
5.136020e-02
5.840550e-02
6.460260e-02
6.995140e-02
4.302860e-02
4.849160e-02
5.317710e-02
5.708520e-02
6.021580e-02
8.674490e-02
7.629190e-02
6.633640e-02
5.687830e-02
4.791780e-02
8.321600e-02
7.381080e-02
6.474780e-02
5.602710e-02
4.764870e-02
7.761820e-02
6.976380e-02
6.215250e-02
5.478440e-02
4.765940e-02
6.995140e-02
6.415090e-02
5.855040e-02
5.315010e-02
4.794980e-02
6.021580e-02
5.697210e-02
5.394160e-02
5.112430e-02
4.852010e-02
4.791780e-02
4.043940e-02
3.343700e-02
2.691050e-02
2.086000e-02
4.764870e-02
4.089180e-02
3.466190e-02
2.895900e-02
2.378300e-02
4.765940e-02
4.148220e-02
3.584800e-02
3.075680e-02
2.620870e-02
4.794980e-02
4.221040e-02
3.699520e-02
3.230410e-02
2.813720e-02
4.852010e-02
4.307660e-02
3.810350e-02
3.360080e-02
2.956840e-02
2.086000e-02
2.204640e-02
2.283190e-02
2.321640e-02
2.319980e-02
2.378300e-02
2.429610e-02
2.455900e-02
2.457160e-02
2.433390e-02
2.620870e-02
2.619100e-02
2.603870e-02
2.575170e-02
2.532990e-02
2.813720e-02
2.773120e-02
2.727100e-02
2.675660e-02
2.618790e-02
2.956840e-02
2.891660e-02
2.825590e-02
2.758630e-02
2.690790e-02
2.319980e-02
2.257360e-02
2.207270e-02
2.169710e-02
2.144690e-02
2.433390e-02
2.357710e-02
2.294610e-02
2.244100e-02
2.206180e-02
2.532990e-02
2.447310e-02
2.374540e-02
2.314680e-02
2.267720e-02
2.618790e-02
2.526170e-02
2.447050e-02
2.381430e-02
2.329300e-02
2.690790e-02
2.594290e-02
2.512150e-02
2.444360e-02
2.390940e-02
2.144690e-02
2.276890e-02
2.362690e-02
2.402110e-02
2.395130e-02
2.206180e-02
2.321600e-02
2.394050e-02
2.423520e-02
2.410010e-02
2.267720e-02
2.366330e-02
2.425480e-02
2.445180e-02
2.425420e-02
2.329300e-02
2.411070e-02
2.457000e-02
2.467090e-02
2.441350e-02
2.390940e-02
2.455820e-02
2.488600e-02
2.489270e-02
2.457820e-02
2.463000e-02
2.448090e-02
2.447560e-02
2.461390e-02
2.489600e-02
2.499690e-02
2.489270e-02
2.492320e-02
2.508830e-02
2.538820e-02
2.534870e-02
2.528870e-02
2.535260e-02
2.554040e-02
2.585220e-02
2.568540e-02
2.566890e-02
2.576380e-02
2.597030e-02
2.628820e-02
2.600690e-02
2.603320e-02
2.615690e-02
2.637780e-02
2.669610e-02
2.489600e-02
2.463990e-02
2.475640e-02
2.524550e-02
2.610710e-02
2.538820e-02
2.531630e-02
2.552390e-02
2.601120e-02
2.677800e-02
2.585220e-02
2.593100e-02
2.621460e-02
2.670300e-02
2.739630e-02
2.628820e-02
2.648410e-02
2.682840e-02
2.732100e-02
2.796200e-02
2.669610e-02
2.697560e-02
2.736530e-02
2.786510e-02
2.847520e-02
2.610710e-02
2.683980e-02
2.789580e-02
2.927530e-02
3.097810e-02
2.677800e-02
2.776600e-02
2.891250e-02
3.021750e-02
3.168110e-02
2.739630e-02
2.853410e-02
2.972210e-02
3.096030e-02
3.224870e-02
2.796200e-02
2.914420e-02
3.032470e-02
3.150350e-02
3.268080e-02
2.847520e-02
2.959620e-02
3.072020e-02
3.184720e-02
3.297740e-02
3.097810e-02
3.440970e-02
3.756200e-02
4.043500e-02
4.302860e-02
3.168110e-02
3.479620e-02
3.765560e-02
4.025940e-02
4.260760e-02
3.224870e-02
3.503670e-02
3.760530e-02
3.995470e-02
4.208470e-02
3.268080e-02
3.513130e-02
3.741130e-02
3.952080e-02
4.145990e-02
3.297740e-02
3.507990e-02
3.707340e-02
3.895780e-02
4.073320e-02
4.302860e-02
4.849160e-02
5.317710e-02
5.708520e-02
6.021580e-02
4.260760e-02
4.696210e-02
5.071670e-02
5.387160e-02
5.642670e-02
4.208470e-02
4.553390e-02
4.851230e-02
5.101990e-02
5.305660e-02
4.145990e-02
4.420720e-02
4.656390e-02
4.853000e-02
5.010560e-02
4.073320e-02
4.298190e-02
4.487150e-02
4.640210e-02
4.757360e-02
6.021580e-02
5.697210e-02
5.394160e-02
5.112430e-02
4.852010e-02
5.642670e-02
5.411660e-02
5.173080e-02
4.926920e-02
4.673180e-02
5.305660e-02
5.139200e-02
4.950570e-02
4.739780e-02
4.506810e-02
5.010560e-02
4.879820e-02
4.726630e-02
4.551000e-02
4.352910e-02
4.757360e-02
4.633530e-02
4.501270e-02
4.360580e-02
4.211460e-02
4.852010e-02
4.307660e-02
3.810350e-02
3.360080e-02
2.956840e-02
4.673180e-02
4.195600e-02
3.770530e-02
3.397980e-02
3.077940e-02
4.506810e-02
4.104360e-02
3.750190e-02
3.444300e-02
3.186690e-02
4.352910e-02
4.033940e-02
3.749310e-02
3.499040e-02
3.283110e-02
4.211460e-02
3.984330e-02
3.767910e-02
3.562190e-02
3.367180e-02
2.956840e-02
2.891660e-02
2.825590e-02
2.758630e-02
2.690790e-02
3.077940e-02
2.993460e-02
2.909100e-02
2.824840e-02
2.740680e-02
3.186690e-02
3.079290e-02
2.976130e-02
2.877210e-02
2.782530e-02
3.283110e-02
3.149130e-02
3.026680e-02
2.915760e-02
2.816360e-02
3.367180e-02
3.202990e-02
3.060760e-02
2.940470e-02
2.842150e-02
2.690790e-02
2.594290e-02
2.512150e-02
2.444360e-02
2.390940e-02
2.740680e-02
2.654470e-02
2.579450e-02
2.515640e-02
2.463030e-02
2.782530e-02
2.706710e-02
2.638950e-02
2.579250e-02
2.527610e-02
2.816360e-02
2.751030e-02
2.690640e-02
2.635190e-02
2.584670e-02
2.842150e-02
2.787410e-02
2.734520e-02
2.683450e-02
2.634220e-02
2.390940e-02
2.455820e-02
2.488600e-02
2.489270e-02
2.457820e-02
2.463030e-02
2.497540e-02
2.511910e-02
2.506130e-02
2.480220e-02
2.527610e-02
2.535100e-02
2.533370e-02
2.522430e-02
2.502270e-02
2.584670e-02
2.568490e-02
2.552990e-02
2.538150e-02
2.523980e-02
2.634220e-02
2.597730e-02
2.570760e-02
2.553300e-02
2.545350e-02
2.600690e-02
2.603320e-02
2.615690e-02
2.637780e-02
2.669610e-02
2.630990e-02
2.637280e-02
2.652050e-02
2.675290e-02
2.707010e-02
2.659390e-02
2.668920e-02
2.685740e-02
2.709870e-02
2.741300e-02
2.685910e-02
2.698240e-02
2.716770e-02
2.741520e-02
2.772470e-02
2.710540e-02
2.725240e-02
2.745140e-02
2.770230e-02
2.800520e-02
2.669610e-02
2.697560e-02
2.736530e-02
2.786510e-02
2.847520e-02
2.707010e-02
2.739710e-02
2.781450e-02
2.832230e-02
2.892060e-02
2.741300e-02
2.777350e-02
2.820770e-02
2.871560e-02
2.929730e-02
2.772470e-02
2.810490e-02
2.854500e-02
2.904510e-02
2.960520e-02
2.800520e-02
2.839120e-02
2.882640e-02
2.931080e-02
2.984440e-02
2.847520e-02
2.959620e-02
3.072020e-02
3.184720e-02
3.297740e-02
2.892060e-02
2.997880e-02
3.103610e-02
3.209240e-02
3.314780e-02
2.929730e-02
3.029430e-02
3.128530e-02
3.227030e-02
3.324910e-02
2.960520e-02
3.054280e-02
3.146800e-02
3.238080e-02
3.328130e-02
2.984440e-02
3.072410e-02
3.158390e-02
3.242410e-02
3.324440e-02
3.297740e-02
3.507990e-02
3.707340e-02
3.895780e-02
4.073320e-02
3.314780e-02
3.502250e-02
3.678880e-02
3.844660e-02
3.999610e-02
3.324910e-02
3.490890e-02
3.646290e-02
3.791120e-02
3.925380e-02
3.328130e-02
3.473910e-02
3.609580e-02
3.735150e-02
3.850630e-02
3.324440e-02
3.451310e-02
3.568750e-02
3.676760e-02
3.775360e-02
4.073320e-02
4.298190e-02
4.487150e-02
4.640210e-02
4.757360e-02
3.999610e-02
4.185850e-02
4.340620e-02
4.463910e-02
4.555720e-02
3.925380e-02
4.077030e-02
4.201990e-02
4.300270e-02
4.371850e-02
3.850630e-02
3.971720e-02
4.071270e-02
4.149270e-02
4.205730e-02
3.775360e-02
3.869930e-02
3.948450e-02
4.010930e-02
4.057370e-02
4.757360e-02
4.633530e-02
4.501270e-02
4.360580e-02
4.211460e-02
4.555720e-02
4.445760e-02
4.328340e-02
4.203450e-02
4.071100e-02
4.371850e-02
4.280130e-02
4.180970e-02
4.074360e-02
3.960300e-02
4.205730e-02
4.136630e-02
4.059150e-02
3.973290e-02
3.879050e-02
4.057370e-02
4.015260e-02
3.962890e-02
3.900250e-02
3.827360e-02
4.211460e-02
3.984330e-02
3.767910e-02
3.562190e-02
3.367180e-02
4.071100e-02
3.875660e-02
3.691920e-02
3.519900e-02
3.359580e-02
3.960300e-02
3.791520e-02
3.634070e-02
3.487960e-02
3.353190e-02
3.879050e-02
3.731920e-02
3.594360e-02
3.466400e-02
3.348010e-02
3.827360e-02
3.696860e-02
3.572800e-02
3.455190e-02
3.344030e-02
3.367180e-02
3.202990e-02
3.060760e-02
2.940470e-02
2.842150e-02
3.359580e-02
3.216760e-02
3.089570e-02
2.978010e-02
2.882090e-02
3.353190e-02
3.227010e-02
3.112090e-02
3.008410e-02
2.915990e-02
3.348010e-02
3.233770e-02
3.128320e-02
3.031680e-02
2.943850e-02
3.344030e-02
3.237010e-02
3.138270e-02
3.047820e-02
2.965650e-02
2.842150e-02
2.787410e-02
2.734520e-02
2.683450e-02
2.634220e-02
2.882090e-02
2.824560e-02
2.769690e-02
2.717460e-02
2.667900e-02
2.915990e-02
2.856100e-02
2.799520e-02
2.746270e-02
2.696330e-02
2.943850e-02
2.882020e-02
2.824030e-02
2.769860e-02
2.719530e-02
2.965650e-02
2.902340e-02
2.843200e-02
2.788250e-02
2.737480e-02
2.634220e-02
2.597730e-02
2.570760e-02
2.553300e-02
2.545350e-02
2.667900e-02
2.629740e-02
2.599610e-02
2.577520e-02
2.563460e-02
2.696330e-02
2.657820e-02
2.625620e-02
2.599740e-02
2.580180e-02
2.719530e-02
2.681970e-02
2.648790e-02
2.619960e-02
2.595510e-02
2.737480e-02
2.702210e-02
2.669110e-02
2.638190e-02
2.609440e-02
2.710540e-02
2.725240e-02
2.745140e-02
2.770230e-02
2.800520e-02
2.733260e-02
2.749370e-02
2.770020e-02
2.795190e-02
2.824900e-02
2.754220e-02
2.771460e-02
2.792610e-02
2.817660e-02
2.846600e-02
2.773410e-02
2.791510e-02
2.812910e-02
2.837620e-02
2.865620e-02