<?xml version="1.0"?>
<VTKFile type="UnstructuredGrid" version="0.1" byte_order="LittleEndian" compressor="vtkZLibDataCompressor">
<UnstructuredGrid>
<Piece NumberOfPoints="2500" NumberOfCells="1600">
<Points>
<DataArray type="Float32" NumberOfComponents="3" format="ascii">
-3.630000e+00 0.000000e+00 0.000000e+00
-3.448500e+00 0.000000e+00 0.000000e+00
-3.267000e+00 0.000000e+00 0.000000e+00
-3.085500e+00 0.000000e+00 0.000000e+00
-2.904000e+00 0.000000e+00 0.000000e+00
-3.630000e+00 1.282500e-01 0.000000e+00
-3.448500e+00 1.282500e-01 0.000000e+00
-3.267000e+00 1.282500e-01 0.000000e+00
-3.085500e+00 1.282500e-01 0.000000e+00
-2.904000e+00 1.282500e-01 0.000000e+00
-3.630000e+00 2.565000e-01 0.000000e+00
-3.448500e+00 2.565000e-01 0.000000e+00
-3.267000e+00 2.565000e-01 0.000000e+00
-3.085500e+00 2.565000e-01 0.000000e+00
-2.904000e+00 2.565000e-01 0.000000e+00
-3.630000e+00 3.847500e-01 0.000000e+00
-3.448500e+00 3.847500e-01 0.000000e+00
-3.267000e+00 3.847500e-01 0.000000e+00
-3.085500e+00 3.847500e-01 0.000000e+00
-2.904000e+00 3.847500e-01 0.000000e+00
-3.630000e+00 5.130000e-01 0.000000e+00
-3.448500e+00 5.130000e-01 0.000000e+00
-3.267000e+00 5.130000e-01 0.000000e+00
-3.085500e+00 5.130000e-01 0.000000e+00
-2.904000e+00 5.130000e-01 0.000000e+00
-2.904000e+00 0.000000e+00 0.000000e+00
-2.722500e+00 0.000000e+00 0.000000e+00
-2.541000e+00 0.000000e+00 0.000000e+00
-2.359500e+00 0.000000e+00 0.000000e+00
-2.178000e+00 0.000000e+00 0.000000e+00
-2.904000e+00 1.282500e-01 0.000000e+00
-2.722500e+00 1.282500e-01 0.000000e+00
-2.541000e+00 1.282500e-01 0.000000e+00
-2.359500e+00 1.282500e-01 0.000000e+00
-2.178000e+00 1.282500e-01 0.000000e+00
-2.904000e+00 2.565000e-01 0.000000e+00
-2.722500e+00 2.565000e-01 0.000000e+00
-2.541000e+00 2.565000e-01 0.000000e+00
-2.359500e+00 2.565000e-01 0.000000e+00
-2.178000e+00 2.565000e-01 0.000000e+00
-2.904000e+00 3.847500e-01 0.000000e+00
-2.722500e+00 3.847500e-01 0.000000e+00
-2.541000e+00 3.847500e-01 0.000000e+00
-2.359500e+00 3.847500e-01 0.000000e+00
-2.178000e+00 3.847500e-01 0.000000e+00
-2.904000e+00 5.130000e-01 0.000000e+00
-2.722500e+00 5.130000e-01 0.000000e+00
-2.541000e+00 5.130000e-01 0.000000e+00
-2.359500e+00 5.130000e-01 0.000000e+00
-2.178000e+00 5.130000e-01 0.000000e+00
-2.178000e+00 0.000000e+00 0.000000e+00
-1.996500e+00 0.000000e+00 0.000000e+00
-1.815000e+00 0.000000e+00 0.000000e+00
-1.633500e+00 0.000000e+00 0.000000e+00
-1.452000e+00 0.000000e+00 0.000000e+00
-2.178000e+00 1.282500e-01 0.000000e+00
-1.996500e+00 1.282500e-01 0.000000e+00
-1.815000e+00 1.282500e-01 0.000000e+00
-1.633500e+00 1.282500e-01 0.000000e+00
-1.452000e+00 1.282500e-01 0.000000e+00
-2.178000e+00 2.565000e-01 0.000000e+00
-1.996500e+00 2.565000e-01 0.000000e+00
-1.815000e+00 2.565000e-01 0.000000e+00
-1.633500e+00 2.565000e-01 0.000000e+00
-1.452000e+00 2.565000e-01 0.000000e+00
-2.178000e+00 3.847500e-01 0.000000e+00
-1.996500e+00 3.847500e-01 0.000000e+00
-1.815000e+00 3.847500e-01 0.000000e+00
-1.633500e+00 3.847500e-01 0.000000e+00
-1.452000e+00 3.847500e-01 0.000000e+00
-2.178000e+00 5.130000e-01 0.000000e+00
-1.996500e+00 5.130000e-01 0.000000e+00
-1.815000e+00 5.130000e-01 0.000000e+00
-1.633500e+00 5.130000e-01 0.000000e+00
-1.452000e+00 5.130000e-01 0.000000e+00
-1.452000e+00 0.000000e+00 0.000000e+00
-1.270500e+00 0.000000e+00 0.000000e+00
-1.089000e+00 0.000000e+00 0.000000e+00
-9.075000e-01 0.000000e+00 0.000000e+00
-7.260000e-01 0.000000e+00 0.000000e+00
-1.452000e+00 1.282500e-01 0.000000e+00
-1.270500e+00 1.282500e-01 0.000000e+00
-1.089000e+00 1.282500e-01 0.000000e+00
-9.075000e-01 1.282500e-01 0.000000e+00
-7.260000e-01 1.282500e-01 0.000000e+00
-1.452000e+00 2.565000e-01 0.000000e+00
-1.270500e+00 2.565000e-01 0.000000e+00
-1.089000e+00 2.565000e-01 0.000000e+00
-9.075000e-01 2.565000e-01 0.000000e+00
-7.260000e-01 2.565000e-01 0.000000e+00
-1.452000e+00 3.847500e-01 0.000000e+00
-1.270500e+00 3.847500e-01 0.000000e+00
-1.089000e+00 3.847500e-01 0.000000e+00
-9.075000e-01 3.847500e-01 0.000000e+00
-7.260000e-01 3.847500e-01 0.000000e+00
-1.452000e+00 5.130000e-01 0.000000e+00
-1.270500e+00 5.130000e-01 0.000000e+00
-1.089000e+00 5.130000e-01 0.000000e+00
-9.075000e-01 5.130000e-01 0.000000e+00
-7.260000e-01 5.130000e-01 0.000000e+00
-7.260000e-01 0.000000e+00 0.000000e+00
-5.445000e-01 0.000000e+00 0.000000e+00
-3.630000e-01 0.000000e+00 0.000000e+00
-1.815000e-01 0.000000e+00 0.000000e+00
0.000000e+00 0.000000e+00 0.000000e+00
-7.260000e-01 1.282500e-01 0.000000e+00
-5.445000e-01 1.282500e-01 0.000000e+00
-3.630000e-01 1.282500e-01 0.000000e+00
-1.815000e-01 1.282500e-01 0.000000e+00
0.000000e+00 1.282500e-01 0.000000e+00
-7.260000e-01 2.565000e-01 0.000000e+00
-5.445000e-01 2.565000e-01 0.000000e+00
-3.630000e-01 2.565000e-01 0.000000e+00
-1.815000e-01 2.565000e-01 0.000000e+00
0.000000e+00 2.565000e-01 0.000000e+00
-7.260000e-01 3.847500e-01 0.000000e+00
-5.445000e-01 3.847500e-01 0.000000e+00
-3.630000e-01 3.847500e-01 0.000000e+00
-1.815000e-01 3.847500e-01 0.000000e+00
0.000000e+00 3.847500e-01 0.000000e+00
-7.260000e-01 5.130000e-01 0.000000e+00
-5.445000e-01 5.130000e-01 0.000000e+00
-3.630000e-01 5.130000e-01 0.000000e+00
-1.815000e-01 5.130000e-01 0.000000e+00
0.000000e+00 5.130000e-01 0.000000e+00
0.000000e+00 0.000000e+00 0.000000e+00
1.815000e-01 0.000000e+00 0.000000e+00
3.630000e-01 0.000000e+00 0.000000e+00
5.445000e-01 0.000000e+00 0.000000e+00
7.260000e-01 0.000000e+00 0.000000e+00
0.000000e+00 1.282500e-01 0.000000e+00
1.815000e-01 1.282500e-01 0.000000e+00
3.630000e-01 1.282500e-01 0.000000e+00
5.445000e-01 1.282500e-01 0.000000e+00
7.260000e-01 1.282500e-01 0.000000e+00
0.000000e+00 2.565000e-01 0.000000e+00
1.815000e-01 2.565000e-01 0.000000e+00
3.630000e-01 2.565000e-01 0.000000e+00
5.445000e-01 2.565000e-01 0.000000e+00
7.260000e-01 2.565000e-01 0.000000e+00
0.000000e+00 3.847500e-01 0.000000e+00
1.815000e-01 3.847500e-01 0.000000e+00
3.630000e-01 3.847500e-01 0.000000e+00
5.445000e-01 3.847500e-01 0.000000e+00
7.260000e-01 3.847500e-01 0.000000e+00
0.000000e+00 5.130000e-01 0.000000e+00
1.815000e-01 5.130000e-01 0.000000e+00
3.630000e-01 5.130000e-01 0.000000e+00
5.445000e-01 5.130000e-01 0.000000e+00
7.260000e-01 5.130000e-01 0.000000e+00
7.260000e-01 0.000000e+00 0.000000e+00
9.075000e-01 0.000000e+00 0.000000e+00
1.089000e+00 0.000000e+00 0.000000e+00
1.270500e+00 0.000000e+00 0.000000e+00
1.452000e+00 0.000000e+00 0.000000e+00
7.260000e-01 1.282500e-01 0.000000e+00
9.075000e-01 1.282500e-01 0.000000e+00
1.089000e+00 1.282500e-01 0.000000e+00
1.270500e+00 1.282500e-01 0.000000e+00
1.452000e+00 1.282500e-01 0.000000e+00
7.260000e-01 2.565000e-01 0.000000e+00
9.075000e-01 2.565000e-01 0.000000e+00
1.089000e+00 2.565000e-01 0.000000e+00
1.270500e+00 2.565000e-01 0.000000e+00
1.452000e+00 2.565000e-01 0.000000e+00
7.260000e-01 3.847500e-01 0.000000e+00
9.075000e-01 3.847500e-01 0.000000e+00
1.089000e+00 3.847500e-01 0.000000e+00
1.270500e+00 3.847500e-01 0.000000e+00
1.452000e+00 3.847500e-01 0.000000e+00
7.260000e-01 5.130000e-01 0.000000e+00
9.075000e-01 5.130000e-01 0.000000e+00
1.089000e+00 5.130000e-01 0.000000e+00
1.270500e+00 5.130000e-01 0.000000e+00
1.452000e+00 5.130000e-01 0.000000e+00
1.452000e+00 0.000000e+00 0.000000e+00
1.633500e+00 0.000000e+00 0.000000e+00
1.815000e+00 0.000000e+00 0.000000e+00
1.996500e+00 0.000000e+00 0.000000e+00
2.178000e+00 0.000000e+00 0.000000e+00
1.452000e+00 1.282500e-01 0.000000e+00
1.633500e+00 1.282500e-01 0.000000e+00
1.815000e+00 1.282500e-01 0.000000e+00
1.996500e+00 1.282500e-01 0.000000e+00
2.178000e+00 1.282500e-01 0.000000e+00
1.452000e+00 2.565000e-01 0.000000e+00
1.633500e+00 2.565000e-01 0.000000e+00
1.815000e+00 2.565000e-01 0.000000e+00
1.996500e+00 2.565000e-01 0.000000e+00
2.178000e+00 2.565000e-01 0.000000e+00
1.452000e+00 3.847500e-01 0.000000e+00
1.633500e+00 3.847500e-01 0.000000e+00
1.815000e+00 3.847500e-01 0.000000e+00
1.996500e+00 3.847500e-01 0.000000e+00
2.178000e+00 3.847500e-01 0.000000e+00
1.452000e+00 5.130000e-01 0.000000e+00
1.633500e+00 5.130000e-01 0.000000e+00
1.815000e+00 5.130000e-01 0.000000e+00
1.996500e+00 5.130000e-01 0.000000e+00
2.178000e+00 5.130000e-01 0.000000e+00
2.178000e+00 0.000000e+00 0.000000e+00
2.359500e+00 0.000000e+00 0.000000e+00
2.541000e+00 0.000000e+00 0.000000e+00
2.722500e+00 0.000000e+00 0.000000e+00
2.904000e+00 0.000000e+00 0.000000e+00
2.178000e+00 1.282500e-01 0.000000e+00
2.359500e+00 1.282500e-01 0.000000e+00
2.541000e+00 1.282500e-01 0.000000e+00
2.722500e+00 1.282500e-01 0.000000e+00
2.904000e+00 1.282500e-01 0.000000e+00
2.178000e+00 2.565000e-01 0.000000e+00
2.359500e+00 2.565000e-01 0.000000e+00
2.541000e+00 2.565000e-01 0.000000e+00
2.722500e+00 2.565000e-01 0.000000e+00
2.904000e+00 2.565000e-01 0.000000e+00
2.178000e+00 3.847500e-01 0.000000e+00
2.359500e+00 3.847500e-01 0.000000e+00
2.541000e+00 3.847500e-01 0.000000e+00
2.722500e+00 3.847500e-01 0.000000e+00
2.904000e+00 3.847500e-01 0.000000e+00
2.178000e+00 5.130000e-01 0.000000e+00
2.359500e+00 5.130000e-01 0.000000e+00
2.541000e+00 5.130000e-01 0.000000e+00
2.722500e+00 5.130000e-01 0.000000e+00
2.904000e+00 5.130000e-01 0.000000e+00
2.904000e+00 0.000000e+00 0.000000e+00
3.085500e+00 0.000000e+00 0.000000e+00
3.267000e+00 0.000000e+00 0.000000e+00
3.448500e+00 0.000000e+00 0.000000e+00
3.630000e+00 0.000000e+00 0.000000e+00
2.904000e+00 1.282500e-01 0.000000e+00
3.085500e+00 1.282500e-01 0.000000e+00
3.267000e+00 1.282500e-01 0.000000e+00
3.448500e+00 1.282500e-01 0.000000e+00
3.630000e+00 1.282500e-01 0.000000e+00
2.904000e+00 2.565000e-01 0.000000e+00
3.085500e+00 2.565000e-01 0.000000e+00
3.267000e+00 2.565000e-01 0.000000e+00
3.448500e+00 2.565000e-01 0.000000e+00
3.630000e+00 2.565000e-01 0.000000e+00
2.904000e+00 3.847500e-01 0.000000e+00
3.085500e+00 3.847500e-01 0.000000e+00
3.267000e+00 3.847500e-01 0.000000e+00
3.448500e+00 3.847500e-01 0.000000e+00
3.630000e+00 3.847500e-01 0.000000e+00
2.904000e+00 5.130000e-01 0.000000e+00
[...]
<PointData>
<DataArray type="Float32" Name="V1" format="ascii">
0.000000e+00
0.000000e+00
0.000000e+00
0.000000e+00
0.000000e+00
1.264110e-02
1.103370e-02
9.647030e-03
8.481000e-03
7.535650e-03
2.028400e-02
1.822670e-02
1.638820e-02
1.476860e-02
1.336790e-02
2.292870e-02
2.157890e-02
2.022360e-02
1.886290e-02
1.749670e-02
2.057510e-02
2.109030e-02
2.115310e-02
2.076370e-02
1.992200e-02
0.000000e+00
0.000000e+00
0.000000e+00
0.000000e+00
0.000000e+00
7.535650e-03
6.469680e-03
5.641090e-03
5.049860e-03
4.696000e-03
1.336790e-02
1.178080e-02
1.051090e-02
9.558200e-03
8.922640e-03
1.749670e-02
1.593340e-02
1.460950e-02
1.352500e-02
1.267990e-02
1.992200e-02
1.892740e-02
1.793680e-02
1.695030e-02
1.596780e-02
0.000000e+00
0.000000e+00
0.000000e+00
0.000000e+00
0.000000e+00
4.696000e-03
4.419880e-03
4.218430e-03
4.091650e-03
4.039530e-03
8.922640e-03
8.405580e-03
8.015010e-03
7.750940e-03
7.613360e-03
1.267990e-02
1.195710e-02
1.138970e-02
1.097790e-02
1.072150e-02
1.596780e-02
1.507440e-02
1.434260e-02
1.377240e-02
1.336390e-02
0.000000e+00
0.000000e+00
0.000000e+00
0.000000e+00
0.000000e+00
4.039530e-03
3.842310e-03
3.996480e-03
4.502030e-03
5.358960e-03
7.613360e-03
7.148070e-03
7.288530e-03
8.034750e-03
9.386720e-03
1.072150e-02
9.917280e-03
9.876170e-03
1.059820e-02
1.208330e-02
1.336390e-02
1.214990e-02
1.175940e-02
1.219230e-02
1.344860e-02
0.000000e+00
0.000000e+00
0.000000e+00
0.000000e+00
0.000000e+00
5.358960e-03
5.114360e-03
4.126760e-03
2.396190e-03
-7.737670e-05
9.386720e-03
8.621730e-03
6.593690e-03
3.302600e-03
-1.251550e-03
1.208330e-02
1.052210e-02
7.400780e-03
2.719230e-03
-3.522510e-03
1.344860e-02
1.081550e-02
6.548030e-03
6.460900e-04
-6.890270e-03
0.000000e+00
0.000000e+00
0.000000e+00
0.000000e+00
0.000000e+00
-7.737670e-05
-1.754620e-03
-4.316670e-03
-7.763520e-03
-1.209520e-02
-1.251550e-03
-4.258110e-03
-8.536190e-03
-1.408580e-02
-2.090690e-02
-3.522510e-03
-7.510450e-03
-1.265850e-02
-1.896680e-02
-2.643530e-02
-6.890270e-03
-1.151160e-02
-1.668380e-02
-2.240660e-02
-2.868020e-02
0.000000e+00
0.000000e+00
0.000000e+00
0.000000e+00
0.000000e+00
-1.209520e-02
-1.266940e-02
-1.232280e-02
-1.105520e-02
-8.866710e-03
-2.090690e-02
-2.129220e-02
-2.031930e-02
-1.798850e-02
-1.429960e-02
-2.643530e-02
-2.586810e-02
-2.398970e-02
-2.079980e-02
-1.629860e-02
-2.868020e-02
-2.639740e-02
-2.333370e-02
-1.948920e-02
-1.486390e-02
0.000000e+00
0.000000e+00
0.000000e+00
0.000000e+00
0.000000e+00
-8.866710e-03
-8.001910e-03
-6.547540e-03
-4.503610e-03
-1.870110e-03
-1.429960e-02
-1.277000e-02
-1.031720e-02
-6.941410e-03
-2.642470e-03
-1.629860e-02
-1.430420e-02
-1.130910e-02
-7.313410e-03
-2.317090e-03
-1.486390e-02
-1.260460e-02
-9.523130e-03
-5.619600e-03
-8.939630e-04
0.000000e+00
0.000000e+00
0.000000e+00
0.000000e+00
0.000000e+00
-1.870110e-03
2.752310e-04
2.066270e-03
3.503000e-03
4.585420e-03
-2.642470e-03
9.545160e-04
3.955590e-03
6.360760e-03
8.170010e-03
-2.317090e-03
2.037860e-03
5.667980e-03
8.573290e-03
1.075380e-02
-8.939630e-04
3.525250e-03
7.203430e-03
1.014060e-02
1.233670e-02
0.000000e+00
0.000000e+00
0.000000e+00
0.000000e+00
0.000000e+00
4.585420e-03
5.687610e-03
6.670550e-03
7.534230e-03
8.278650e-03
8.170010e-03
1.003220e-02
1.168090e-02
1.311610e-02
1.433780e-02
1.075380e-02
1.303370e-02
1.503090e-02
1.674560e-02
1.817760e-02
1.233670e-02
1.469210e-02
1.672080e-02
1.842270e-02
1.979790e-02
2.057510e-02
2.109030e-02
2.115310e-02
2.076370e-02
1.992200e-02
2.078850e-02
2.098030e-02
2.100240e-02
2.085470e-02
2.053720e-02
2.103660e-02
2.097120e-02
2.092300e-02
2.089210e-02
2.087830e-02
2.131930e-02
2.106280e-02
2.091500e-02
2.087580e-02
2.094530e-02
2.163650e-02
2.125520e-02
2.097830e-02
2.080600e-02
2.073810e-02
1.992200e-02
1.892740e-02
1.793680e-02
1.695030e-02
1.596780e-02
2.053720e-02
2.004560e-02
1.947830e-02
1.883520e-02
1.811640e-02
2.087830e-02
2.074790e-02
2.050180e-02
2.014010e-02
1.966270e-02
2.094530e-02
2.103430e-02
2.100750e-02
2.086500e-02
2.060670e-02
2.073810e-02
2.090470e-02
2.099530e-02
2.100990e-02
2.094860e-02
1.596780e-02
1.507440e-02
1.434260e-02
1.377240e-02
1.336390e-02
1.811640e-02
1.728260e-02
1.656610e-02
1.596680e-02
1.548490e-02
1.966270e-02
1.891280e-02
1.825220e-02
1.768100e-02
1.719910e-02
2.060670e-02
1.996510e-02
1.940110e-02
1.891490e-02
1.850640e-02
2.094860e-02
2.043940e-02
2.001280e-02
1.966860e-02
1.940690e-02
1.336390e-02
1.214990e-02
1.175940e-02
1.219230e-02
1.344860e-02
1.548490e-02
1.374490e-02
1.303200e-02
1.334650e-02
1.468810e-02
1.719910e-02
1.502850e-02
1.407570e-02
1.434070e-02
1.582350e-02
1.850640e-02
1.600080e-02
1.489030e-02
1.517500e-02
1.685490e-02
1.940690e-02
1.666180e-02
1.547600e-02
1.584950e-02
1.778210e-02
1.344860e-02
1.081550e-02
6.548030e-03
6.460900e-04
-6.890270e-03
1.468810e-02
1.095310e-02
5.887160e-03
-5.097220e-04
-8.237530e-03
1.582350e-02
1.135040e-02
5.833410e-03
-7.275160e-04
-8.332360e-03
1.685490e-02
1.200750e-02
6.386800e-03
-7.291400e-06
-7.174770e-03
1.778210e-02
1.292440e-02
7.547330e-03
1.650950e-03
-4.764740e-03
-6.890270e-03
-1.151160e-02
-1.668380e-02
-2.240660e-02
-2.868020e-02
-8.237530e-03
-1.159910e-02
-1.603320e-02
-2.153980e-02
-2.811890e-02
-8.332360e-03
-1.003610e-02
-1.346230e-02
-1.861090e-02
-2.548190e-02
-7.174770e-03
-6.822560e-03
-8.970880e-03
-1.361970e-02
-2.076910e-02
-4.764740e-03
-1.958500e-03
-2.559070e-03
-6.566430e-03
-1.398060e-02
-2.868020e-02
-2.639740e-02
-2.333370e-02
-1.948920e-02
-1.486390e-02
-2.811890e-02
-2.593430e-02
-2.282270e-02
-1.878420e-02
-1.381890e-02
-2.548190e-02
-2.374410e-02
-2.080270e-02
-1.665770e-02
-1.130900e-02
-2.076910e-02
-1.982690e-02
-1.727370e-02
-1.310950e-02
-7.334340e-03
-1.398060e-02
-1.418260e-02
-1.223570e-02
-8.139730e-03
-1.894810e-03
-1.486390e-02
-1.260460e-02
-9.523130e-03
-5.619600e-03
-8.939630e-04
-1.381890e-02
-1.216120e-02
-9.364240e-03
-5.427870e-03
-3.521280e-04
-1.130900e-02
-1.030120e-02
-7.963810e-03
-4.296770e-03
6.999060e-04
-7.334340e-03
-7.024530e-03
-5.321850e-03
-2.226290e-03
2.262140e-03
-1.894810e-03
-2.331140e-03
-1.438350e-03
7.835550e-04
4.334570e-03
-8.939630e-04
3.525250e-03
7.203430e-03
1.014060e-02
1.233670e-02
-3.521280e-04
4.532370e-03
8.468180e-03
1.145530e-02
1.349380e-02
6.999060e-04
5.845650e-03
9.879370e-03
1.280100e-02
1.461070e-02
2.262140e-03
7.465110e-03
1.143700e-02
1.417780e-02
1.568750e-02
4.334570e-03
9.390740e-03
1.314110e-02
1.558560e-02
1.672430e-02
1.233670e-02
1.469210e-02
1.672080e-02
1.842270e-02
1.979790e-02
1.349380e-02
1.565070e-02
1.757870e-02
1.927750e-02
2.074740e-02
1.461070e-02
1.651910e-02
1.829120e-02
1.992680e-02
2.142610e-02
1.568750e-02
1.729730e-02
1.885830e-02
2.037060e-02
2.183400e-02
1.672430e-02
1.798530e-02
1.928010e-02
2.060880e-02
2.197120e-02
2.163650e-02
2.125520e-02
2.097830e-02
2.080600e-02
2.073810e-02
2.197900e-02
2.160130e-02
2.131220e-02
2.111170e-02
2.099980e-02
2.233590e-02
2.198530e-02
2.170520e-02
2.149530e-02
2.135590e-02
2.270730e-02
2.240740e-02
2.215730e-02
2.195700e-02
2.180640e-02
2.309330e-02
2.286750e-02
2.266860e-02
2.249660e-02
2.235150e-02
2.073810e-02
2.090470e-02
2.099530e-02
2.100990e-02
2.094860e-02
2.099980e-02
2.107140e-02
2.112450e-02
2.115900e-02
2.117500e-02
2.135590e-02
2.134170e-02
2.135200e-02
2.138680e-02
2.144620e-02
2.180640e-02
2.171560e-02
2.167790e-02
2.169340e-02
2.176200e-02
2.235150e-02
2.219320e-02
2.210220e-02
2.207870e-02
2.212250e-02
2.094860e-02
2.043940e-02
2.001280e-02
1.966860e-02
1.940690e-02
2.117500e-02
2.069740e-02
2.035370e-02
2.014390e-02
2.006790e-02
2.144620e-02
2.098020e-02
2.069500e-02
2.059040e-02
2.066650e-02
2.176200e-02
2.128790e-02
2.103660e-02
2.100810e-02
2.120250e-02
2.212250e-02
2.162030e-02
2.137850e-02
2.139710e-02
2.167600e-02
1.940690e-02
1.666180e-02
1.547600e-02
1.584950e-02
1.778210e-02
2.006790e-02
1.731500e-02
1.615960e-02
1.660170e-02
1.864130e-02
2.066650e-02
1.801660e-02
1.693720e-02
1.742850e-02
1.949040e-02
2.120250e-02
1.876640e-02
1.780880e-02
1.832990e-02
2.032950e-02
2.167600e-02
1.956450e-02
1.877440e-02
1.930570e-02
2.115840e-02
1.778210e-02
1.292440e-02
7.547330e-03
1.650950e-03
-4.764740e-03
1.864130e-02
1.445140e-02
9.723420e-03
4.457290e-03
-1.346970e-03
1.949040e-02
1.623940e-02
1.231010e-02
7.702480e-03
2.416530e-03
2.032950e-02
1.828840e-02
1.530740e-02
1.138650e-02
6.525750e-03
2.115840e-02
2.059820e-02
1.871520e-02
1.550940e-02
1.098070e-02
-4.764740e-03
-1.958500e-03
-2.559070e-03
-6.566430e-03
-1.398060e-02
-1.346970e-03
3.505540e-03
4.483260e-03
1.586190e-03
-5.185660e-03
2.416530e-03
8.712770e-03
1.104140e-02
9.402400e-03
3.795810e-03
6.525750e-03
1.366320e-02
1.711530e-02
1.688220e-02
1.296380e-02
1.098070e-02
1.835680e-02
2.270510e-02
2.402560e-02
2.231830e-02
-1.398060e-02
-1.418260e-02
-1.223570e-02
-8.139730e-03
-1.894810e-03
-5.185660e-03
-6.806990e-03
-5.798100e-03
-2.159000e-03
4.110330e-03
3.795810e-03
1.350380e-03
1.679380e-03
4.782830e-03
1.066070e-02
1.296380e-02
1.028950e-02
1.019680e-02
1.268570e-02
1.775630e-02
2.231830e-02
2.001030e-02
1.975410e-02
2.154970e-02
2.539710e-02
-1.894810e-03
-2.331140e-03
-1.438350e-03
7.835550e-04
4.334570e-03
4.110330e-03
3.096910e-03
3.234790e-03
4.523970e-03
6.964450e-03
1.066070e-02
9.028960e-03
8.389230e-03
8.741540e-03
1.008590e-02
1.775630e-02
1.546500e-02
1.402500e-02
1.343630e-02
1.369880e-02
2.539710e-02
2.240500e-02
2.014210e-02
1.860820e-02
1.780340e-02
4.334570e-03
9.390740e-03
1.314110e-02
1.558560e-02
1.672430e-02
6.964450e-03
1.162960e-02
1.499130e-02
1.704980e-02
1.780500e-02
1.008590e-02
1.415070e-02
1.696850e-02
1.853910e-02
1.886270e-02
1.369880e-02
1.695430e-02
1.907250e-02
2.005360e-02
1.989750e-02
1.780340e-02
2.004020e-02
2.130340e-02
2.159310e-02
2.090930e-02
1.672430e-02
1.798530e-02
1.928010e-02
2.060880e-02
2.197120e-02
1.780500e-02
1.895690e-02
2.008070e-02
2.117660e-02
2.224450e-02
1.886270e-02
1.992290e-02
2.089090e-02
2.176660e-02
2.255000e-02
1.989750e-02
2.088350e-02
2.171060e-02
2.237870e-02
2.288790e-02
2.090930e-02
2.183870e-02
2.253990e-02
2.301300e-02
2.325800e-02
2.309330e-02
2.286750e-02
2.266860e-02
2.249660e-02
2.235150e-02
2.348320e-02
2.330340e-02
2.314330e-02
2.300310e-02
2.288270e-02
2.386930e-02
2.373140e-02
2.360660e-02
2.349490e-02
2.339630e-02
2.425160e-02
2.415170e-02
2.405850e-02
2.397210e-02
2.389240e-02
2.463000e-02
2.456410e-02
2.449900e-02
2.443460e-02
2.437090e-02
2.235150e-02
2.219320e-02
2.210220e-02
2.207870e-02
2.212250e-02
2.288270e-02
2.271750e-02
2.261010e-02
2.256050e-02
2.256870e-02
2.339630e-02
2.323470e-02
2.312100e-02
2.305510e-02
2.303720e-02
2.389240e-02
2.374490e-02
2.363490e-02
2.356270e-02
2.352810e-02
2.437090e-02
2.424800e-02
2.415200e-02
2.408310e-02
2.404130e-02
2.212250e-02
2.162030e-02
2.137850e-02
2.139710e-02
2.167600e-02
2.256870e-02
2.211230e-02
2.188180e-02
2.187730e-02
2.209880e-02
2.303720e-02
2.263870e-02
2.242980e-02
2.241050e-02
2.258080e-02
2.352810e-02
2.319960e-02
2.302250e-02
2.299660e-02
2.312210e-02
2.404130e-02
2.379510e-02
2.365980e-02
2.363570e-02
2.372260e-02
2.167600e-02
1.956450e-02
1.877440e-02
1.930570e-02
2.115840e-02
2.209880e-02
2.054340e-02
1.995400e-02
2.033060e-02
2.167320e-02
2.258080e-02
2.152090e-02
2.112850e-02
2.140370e-02
2.234640e-02
2.312210e-02
2.249700e-02
2.229790e-02
2.252490e-02
2.317800e-02
2.372260e-02
2.347170e-02
2.346230e-02
2.369440e-02
2.416810e-02
2.115840e-02
2.059820e-02
1.871520e-02
1.550940e-02
1.098070e-02
2.167320e-02
2.271360e-02
2.224120e-02
2.025590e-02
1.675770e-02
2.234640e-02
2.440170e-02
2.505420e-02
2.430380e-02
2.215040e-02
2.317800e-02
2.566270e-02
2.715440e-02
2.765310e-02
2.715890e-02
2.416810e-02
2.649650e-02
2.854180e-02
3.030400e-02
3.178300e-02
1.098070e-02
1.835680e-02
2.270510e-02
2.402560e-02
2.231830e-02
1.675770e-02
2.323270e-02
2.767780e-02
3.009310e-02
3.047860e-02
2.215040e-02
2.797260e-02
3.246230e-02
3.561930e-02
3.744380e-02
2.715890e-02
3.257660e-02
3.705840e-02
4.060420e-02
4.321410e-02
3.178300e-02
3.704460e-02
4.146620e-02
4.504780e-02
4.778940e-02
2.231830e-02
2.001030e-02
1.975410e-02
2.154970e-02
2.539710e-02
3.047860e-02
2.871670e-02
2.824750e-02
2.907100e-02
3.118700e-02
3.744380e-02
3.610940e-02
3.546220e-02
3.550220e-02
3.622950e-02
4.321410e-02
4.218840e-02
4.139830e-02
4.084360e-02
4.052450e-02
4.778940e-02
4.695380e-02
4.605560e-02
4.509510e-02
4.407200e-02
2.539710e-02
2.240500e-02
2.014210e-02
1.860820e-02
1.780340e-02
3.118700e-02
2.805030e-02
2.547710e-02
2.346750e-02
2.202140e-02
3.622950e-02
3.293930e-02
3.008210e-02
2.765770e-02
2.566610e-02
4.052450e-02
3.707220e-02
3.395700e-02
3.117880e-02
2.873750e-02
4.407200e-02
4.044900e-02
3.710200e-02
3.403080e-02
3.123550e-02
1.780340e-02
2.004020e-02
2.130340e-02
2.159310e-02
2.090930e-02
2.202140e-02
2.296460e-02
2.324060e-02
2.284940e-02
2.179100e-02
2.566610e-02
2.552660e-02
2.498880e-02
2.405290e-02
2.271890e-02
2.873750e-02
2.772590e-02
2.654800e-02
2.520370e-02
2.369300e-02
3.123550e-02
2.956280e-02
2.791820e-02
2.630170e-02
2.471340e-02
2.090930e-02
2.183870e-02
2.253990e-02
2.301300e-02
2.325800e-02
2.179100e-02
2.279610e-02
2.345020e-02
2.375330e-02
2.370530e-02
2.271890e-02
2.373850e-02
2.431060e-02
2.443530e-02
2.411250e-02
2.369300e-02
2.466570e-02
2.512110e-02
2.505890e-02
2.447940e-02
2.471340e-02
2.557790e-02
2.588160e-02
2.562430e-02
2.480620e-02
2.463000e-02
2.456410e-02
2.449900e-02
2.443460e-02
2.437090e-02
2.499690e-02
2.495930e-02
2.492120e-02
2.488250e-02
2.484320e-02
2.534870e-02
2.533840e-02
2.532670e-02
2.531360e-02
2.529920e-02
2.568540e-02
2.570130e-02
2.571560e-02
2.572810e-02
2.573880e-02
2.600690e-02
2.604820e-02
2.608780e-02
2.612580e-02
2.616210e-02
2.437090e-02
2.424800e-02
2.415200e-02
2.408310e-02
2.404130e-02
2.484320e-02
2.473060e-02
2.464950e-02
2.460000e-02
2.458210e-02
2.529920e-02
2.519860e-02
2.513350e-02
2.510390e-02
2.510990e-02
2.573880e-02
2.565210e-02
2.560410e-02
2.559500e-02
2.562470e-02
2.616210e-02
2.609100e-02
2.606130e-02
2.607320e-02
2.612650e-02
2.404130e-02
2.379510e-02
2.365980e-02
2.363570e-02
2.372260e-02
2.458210e-02
2.437320e-02
2.427960e-02
2.430140e-02
2.443850e-02
2.510990e-02
2.493930e-02
2.488460e-02
2.494570e-02
2.512260e-02
2.562470e-02
2.549360e-02
2.547490e-02
2.556860e-02
2.577470e-02
2.612650e-02
2.603600e-02
2.605060e-02
2.617020e-02
2.639490e-02
2.372260e-02
2.347170e-02
2.346230e-02
2.369440e-02
2.416810e-02
2.443850e-02
2.430810e-02
2.442460e-02
2.478790e-02
2.539810e-02
2.512260e-02
2.509660e-02
2.531110e-02
2.576590e-02
2.646110e-02
2.577470e-02
2.583710e-02
2.612160e-02
2.662820e-02
2.735700e-02
2.639490e-02
2.652950e-02
2.685620e-02
2.737500e-02
2.808590e-02
2.416810e-02
2.649650e-02
2.854180e-02
3.030400e-02
3.178300e-02
2.539810e-02
2.719220e-02
2.918770e-02
3.138460e-02
3.378300e-02
2.646110e-02
2.787080e-02
2.973760e-02
3.206140e-02
3.484230e-02
2.735700e-02
2.853250e-02
3.019160e-02
3.233430e-02
3.496070e-02
2.808590e-02
2.917700e-02
3.054950e-02
3.220330e-02
3.413830e-02
3.178300e-02
3.704460e-02
4.146620e-02
4.504780e-02
4.778940e-02
3.378300e-02
3.947570e-02
4.427110e-02
4.816930e-02
5.117030e-02
3.484230e-02
4.049670e-02
4.530770e-02
4.927530e-02
5.239960e-02
3.496070e-02
4.010760e-02
4.457600e-02
4.836590e-02
5.147730e-02
3.413830e-02
3.830840e-02
4.207590e-02
4.544100e-02
4.840350e-02
4.778940e-02
4.695380e-02
4.605560e-02
4.509510e-02
4.407200e-02
5.117030e-02
5.065450e-02
4.971990e-02
4.836620e-02
4.659360e-02
5.239960e-02
5.220610e-02
5.136470e-02
4.987550e-02
4.773850e-02
5.147730e-02
5.160840e-02
5.099030e-02
4.962310e-02
4.750670e-02
4.840350e-02
4.886140e-02
4.859660e-02
4.760880e-02
4.589820e-02
4.407200e-02
4.044900e-02
3.710200e-02
3.403080e-02
3.123550e-02
4.659360e-02
4.254300e-02
3.888130e-02
3.560840e-02
3.272430e-02
4.773850e-02
4.363290e-02
3.994860e-02
3.668540e-02
3.384350e-02
4.750670e-02
4.371870e-02
4.030370e-02
3.726180e-02
3.459300e-02
4.589820e-02
4.280030e-02
3.994680e-02
3.733760e-02
3.497270e-02
3.123550e-02
2.956280e-02
2.791820e-02
2.630170e-02
2.471340e-02
3.272430e-02
3.087430e-02
2.913750e-02
2.751400e-02
2.600370e-02
3.384350e-02
3.189550e-02
3.012820e-02
2.854160e-02
2.713570e-02
3.459300e-02
3.262640e-02
3.089030e-02
2.938470e-02
2.810960e-02
3.497270e-02
3.306700e-02
3.142380e-02
3.004320e-02
2.892520e-02
2.471340e-02
2.557790e-02
2.588160e-02
2.562430e-02
2.480620e-02
2.600370e-02
2.633580e-02
2.632430e-02
2.596890e-02
2.526990e-02
2.713570e-02
2.700560e-02
2.672710e-02
2.630000e-02
2.572450e-02
2.810960e-02
2.758740e-02
2.709010e-02
2.661770e-02
2.617020e-02
2.892520e-02
2.808110e-02
2.741330e-02
2.692190e-02
2.660680e-02
2.600690e-02
2.604820e-02
2.608780e-02
2.612580e-02
2.616210e-02
2.630990e-02
2.637450e-02
2.643680e-02
2.649680e-02
2.655450e-02
2.659390e-02
2.668070e-02
2.676420e-02
2.684430e-02
2.692120e-02
2.685910e-02
2.696680e-02
2.706990e-02
2.716840e-02
2.726220e-02
2.710540e-02
2.723280e-02
2.735400e-02
2.746890e-02
2.757760e-02
2.616210e-02
2.609100e-02
2.606130e-02
2.607320e-02
2.612650e-02
2.655450e-02
2.651000e-02
2.650150e-02
2.652900e-02
2.659250e-02
2.692120e-02
2.690220e-02
2.691410e-02
2.695670e-02
2.703010e-02
2.726220e-02
2.726770e-02
2.729910e-02
2.735620e-02
2.743920e-02
2.757760e-02
2.760650e-02
2.765650e-02
2.772760e-02
2.781990e-02
2.612650e-02
2.603600e-02
2.605060e-02
2.617020e-02
2.639490e-02
2.659250e-02
2.654930e-02
2.659430e-02
2.672770e-02
2.694930e-02
2.703010e-02
2.702680e-02
2.709780e-02
2.724330e-02
2.746300e-02
2.743920e-02
2.746850e-02
2.756110e-02
2.771700e-02
2.793620e-02
2.781990e-02
2.787450e-02
2.798420e-02
2.814890e-02
2.836880e-02
2.639490e-02
2.652950e-02
2.685620e-02
2.737500e-02
2.808590e-02
2.694930e-02
2.715550e-02
2.751620e-02
2.803150e-02
2.870150e-02
2.746300e-02
2.771800e-02
2.809880e-02
2.860550e-02
2.923800e-02
2.793620e-02
2.821720e-02
2.860400e-02
2.909670e-02
2.969540e-02
2.836880e-02
2.865290e-02
2.903180e-02
2.950540e-02
3.007370e-02
2.808590e-02
2.917700e-02
3.054950e-02
3.220330e-02
3.413830e-02
2.870150e-02
2.976890e-02
3.101530e-02
3.244090e-02
3.404550e-02
2.923800e-02
3.027110e-02
3.140970e-02
3.265360e-02
3.400290e-02
2.969540e-02
3.068380e-02
3.173250e-02
3.284140e-02
3.401060e-02
3.007370e-02
3.100700e-02
3.198390e-02
3.300440e-02
3.406850e-02
3.413830e-02
3.830840e-02
4.207590e-02
4.544100e-02
4.840350e-02
3.404550e-02
3.728400e-02
4.025170e-02
4.294840e-02
4.537420e-02
3.400290e-02
3.649570e-02
3.880870e-02
4.094200e-02
4.289560e-02
3.401060e-02
3.594340e-02
3.774710e-02
3.942190e-02
4.096760e-02
3.406850e-02
3.562700e-02
3.706680e-02
3.838790e-02
3.959030e-02
4.840350e-02
4.886140e-02
4.859660e-02
4.760880e-02
4.589820e-02
4.537420e-02
4.598700e-02
4.599990e-02
4.541300e-02
4.422620e-02
4.289560e-02
4.358080e-02
4.377300e-02
4.347220e-02
4.267840e-02
4.096760e-02
4.164300e-02
4.191600e-02
4.178660e-02
4.125490e-02
3.959030e-02
4.017340e-02
4.042870e-02
4.035610e-02
3.995560e-02
4.589820e-02
4.280030e-02
3.994680e-02
3.733760e-02
3.497270e-02
4.422620e-02
4.173960e-02
3.939070e-02
3.717930e-02
3.510550e-02
4.267840e-02
4.070940e-02
3.879620e-02
3.693870e-02
3.513690e-02
4.125490e-02
3.970960e-02
3.816320e-02
3.661570e-02
3.506720e-02
3.995560e-02
3.874020e-02
3.749180e-02
3.621050e-02
3.489610e-02
3.497270e-02
3.306700e-02
3.142380e-02
3.004320e-02
2.892520e-02
3.510550e-02
3.334450e-02
3.181410e-02
3.051420e-02
2.944490e-02
3.513690e-02
3.351950e-02
3.210110e-02
3.088170e-02
2.986130e-02
3.506720e-02
3.359190e-02
3.228470e-02
3.114550e-02
3.017440e-02
3.489610e-02
3.356180e-02
3.236500e-02
3.130580e-02
3.038420e-02
2.892520e-02
2.808110e-02
2.741330e-02
2.692190e-02
2.660680e-02
2.944490e-02
2.856710e-02
2.785980e-02
2.732300e-02
2.695690e-02
2.986130e-02
2.897360e-02
2.824590e-02
2.767830e-02
2.727080e-02
3.017440e-02
2.930070e-02
2.857180e-02
2.798780e-02
2.754860e-02
3.038420e-02
2.954830e-02
2.883740e-02
2.825130e-02
2.779020e-02
2.710540e-02
2.723280e-02
2.735400e-02
2.746890e-02
2.757760e-02
2.733260e-02
2.747360e-02
2.760840e-02
2.773700e-02
2.785930e-02
2.754220e-02
2.769500e-02
2.784130e-02
2.798110e-02
2.811450e-02
2.773410e-02
2.789690e-02
2.805270e-02
2.820140e-02
2.834310e-02