<?xml version="1.0"?>
<VTKFile type="UnstructuredGrid" version="0.1" byte_order="LittleEndian" compressor="vtkZLibDataCompressor">
<UnstructuredGrid>
<Piece NumberOfPoints="2500" NumberOfCells="1600">
<Points>
<DataArray type="Float32" NumberOfComponents="3" format="ascii">
-3.630000e+00 0.000000e+00 0.000000e+00
-3.448500e+00 0.000000e+00 0.000000e+00
-3.267000e+00 0.000000e+00 0.000000e+00
-3.085500e+00 0.000000e+00 0.000000e+00
-2.904000e+00 0.000000e+00 0.000000e+00
-3.630000e+00 1.282500e-01 0.000000e+00
-3.448500e+00 1.282500e-01 0.000000e+00
-3.267000e+00 1.282500e-01 0.000000e+00
-3.085500e+00 1.282500e-01 0.000000e+00
-2.904000e+00 1.282500e-01 0.000000e+00
-3.630000e+00 2.565000e-01 0.000000e+00
-3.448500e+00 2.565000e-01 0.000000e+00
-3.267000e+00 2.565000e-01 0.000000e+00
-3.085500e+00 2.565000e-01 0.000000e+00
-2.904000e+00 2.565000e-01 0.000000e+00
-3.630000e+00 3.847500e-01 0.000000e+00
-3.448500e+00 3.847500e-01 0.000000e+00
-3.267000e+00 3.847500e-01 0.000000e+00
-3.085500e+00 3.847500e-01 0.000000e+00
-2.904000e+00 3.847500e-01 0.000000e+00
-3.630000e+00 5.130000e-01 0.000000e+00
-3.448500e+00 5.130000e-01 0.000000e+00
-3.267000e+00 5.130000e-01 0.000000e+00
-3.085500e+00 5.130000e-01 0.000000e+00
-2.904000e+00 5.130000e-01 0.000000e+00
-2.904000e+00 0.000000e+00 0.000000e+00
-2.722500e+00 0.000000e+00 0.000000e+00
-2.541000e+00 0.000000e+00 0.000000e+00
-2.359500e+00 0.000000e+00 0.000000e+00
-2.178000e+00 0.000000e+00 0.000000e+00
-2.904000e+00 1.282500e-01 0.000000e+00
-2.722500e+00 1.282500e-01 0.000000e+00
-2.541000e+00 1.282500e-01 0.000000e+00
-2.359500e+00 1.282500e-01 0.000000e+00
-2.178000e+00 1.282500e-01 0.000000e+00
-2.904000e+00 2.565000e-01 0.000000e+00
-2.722500e+00 2.565000e-01 0.000000e+00
-2.541000e+00 2.565000e-01 0.000000e+00
-2.359500e+00 2.565000e-01 0.000000e+00
-2.178000e+00 2.565000e-01 0.000000e+00
-2.904000e+00 3.847500e-01 0.000000e+00
-2.722500e+00 3.847500e-01 0.000000e+00
-2.541000e+00 3.847500e-01 0.000000e+00
-2.359500e+00 3.847500e-01 0.000000e+00
-2.178000e+00 3.847500e-01 0.000000e+00
-2.904000e+00 5.130000e-01 0.000000e+00
-2.722500e+00 5.130000e-01 0.000000e+00
-2.541000e+00 5.130000e-01 0.000000e+00
-2.359500e+00 5.130000e-01 0.000000e+00
-2.178000e+00 5.130000e-01 0.000000e+00
-2.178000e+00 0.000000e+00 0.000000e+00
-1.996500e+00 0.000000e+00 0.000000e+00
-1.815000e+00 0.000000e+00 0.000000e+00
-1.633500e+00 0.000000e+00 0.000000e+00
-1.452000e+00 0.000000e+00 0.000000e+00
-2.178000e+00 1.282500e-01 0.000000e+00
-1.996500e+00 1.282500e-01 0.000000e+00
-1.815000e+00 1.282500e-01 0.000000e+00
-1.633500e+00 1.282500e-01 0.000000e+00
-1.452000e+00 1.282500e-01 0.000000e+00
-2.178000e+00 2.565000e-01 0.000000e+00
-1.996500e+00 2.565000e-01 0.000000e+00
-1.815000e+00 2.565000e-01 0.000000e+00
-1.633500e+00 2.565000e-01 0.000000e+00
-1.452000e+00 2.565000e-01 0.000000e+00
-2.178000e+00 3.847500e-01 0.000000e+00
-1.996500e+00 3.847500e-01 0.000000e+00
-1.815000e+00 3.847500e-01 0.000000e+00
-1.633500e+00 3.847500e-01 0.000000e+00
-1.452000e+00 3.847500e-01 0.000000e+00
-2.178000e+00 5.130000e-01 0.000000e+00
-1.996500e+00 5.130000e-01 0.000000e+00
-1.815000e+00 5.130000e-01 0.000000e+00
-1.633500e+00 5.130000e-01 0.000000e+00
-1.452000e+00 5.130000e-01 0.000000e+00
-1.452000e+00 0.000000e+00 0.000000e+00
-1.270500e+00 0.000000e+00 0.000000e+00
-1.089000e+00 0.000000e+00 0.000000e+00
-9.075000e-01 0.000000e+00 0.000000e+00
-7.260000e-01 0.000000e+00 0.000000e+00
-1.452000e+00 1.282500e-01 0.000000e+00
-1.270500e+00 1.282500e-01 0.000000e+00
-1.089000e+00 1.282500e-01 0.000000e+00
-9.075000e-01 1.282500e-01 0.000000e+00
-7.260000e-01 1.282500e-01 0.000000e+00
-1.452000e+00 2.565000e-01 0.000000e+00
-1.270500e+00 2.565000e-01 0.000000e+00
-1.089000e+00 2.565000e-01 0.000000e+00
-9.075000e-01 2.565000e-01 0.000000e+00
-7.260000e-01 2.565000e-01 0.000000e+00
-1.452000e+00 3.847500e-01 0.000000e+00
-1.270500e+00 3.847500e-01 0.000000e+00
-1.089000e+00 3.847500e-01 0.000000e+00
-9.075000e-01 3.847500e-01 0.000000e+00
-7.260000e-01 3.847500e-01 0.000000e+00
-1.452000e+00 5.130000e-01 0.000000e+00
-1.270500e+00 5.130000e-01 0.000000e+00
-1.089000e+00 5.130000e-01 0.000000e+00
-9.075000e-01 5.130000e-01 0.000000e+00
-7.260000e-01 5.130000e-01 0.000000e+00
-7.260000e-01 0.000000e+00 0.000000e+00
-5.445000e-01 0.000000e+00 0.000000e+00
-3.630000e-01 0.000000e+00 0.000000e+00
-1.815000e-01 0.000000e+00 0.000000e+00
0.000000e+00 0.000000e+00 0.000000e+00
-7.260000e-01 1.282500e-01 0.000000e+00
-5.445000e-01 1.282500e-01 0.000000e+00
-3.630000e-01 1.282500e-01 0.000000e+00
-1.815000e-01 1.282500e-01 0.000000e+00
0.000000e+00 1.282500e-01 0.000000e+00
-7.260000e-01 2.565000e-01 0.000000e+00
-5.445000e-01 2.565000e-01 0.000000e+00
-3.630000e-01 2.565000e-01 0.000000e+00
-1.815000e-01 2.565000e-01 0.000000e+00
0.000000e+00 2.565000e-01 0.000000e+00
-7.260000e-01 3.847500e-01 0.000000e+00
-5.445000e-01 3.847500e-01 0.000000e+00
-3.630000e-01 3.847500e-01 0.000000e+00
-1.815000e-01 3.847500e-01 0.000000e+00
0.000000e+00 3.847500e-01 0.000000e+00
-7.260000e-01 5.130000e-01 0.000000e+00
-5.445000e-01 5.130000e-01 0.000000e+00
-3.630000e-01 5.130000e-01 0.000000e+00
-1.815000e-01 5.130000e-01 0.000000e+00
0.000000e+00 5.130000e-01 0.000000e+00
0.000000e+00 0.000000e+00 0.000000e+00
1.815000e-01 0.000000e+00 0.000000e+00
3.630000e-01 0.000000e+00 0.000000e+00
5.445000e-01 0.000000e+00 0.000000e+00
7.260000e-01 0.000000e+00 0.000000e+00
0.000000e+00 1.282500e-01 0.000000e+00
1.815000e-01 1.282500e-01 0.000000e+00
3.630000e-01 1.282500e-01 0.000000e+00
5.445000e-01 1.282500e-01 0.000000e+00
7.260000e-01 1.282500e-01 0.000000e+00
0.000000e+00 2.565000e-01 0.000000e+00
1.815000e-01 2.565000e-01 0.000000e+00
3.630000e-01 2.565000e-01 0.000000e+00
5.445000e-01 2.565000e-01 0.000000e+00
7.260000e-01 2.565000e-01 0.000000e+00
0.000000e+00 3.847500e-01 0.000000e+00
1.815000e-01 3.847500e-01 0.000000e+00
3.630000e-01 3.847500e-01 0.000000e+00
5.445000e-01 3.847500e-01 0.000000e+00
7.260000e-01 3.847500e-01 0.000000e+00
0.000000e+00 5.130000e-01 0.000000e+00
1.815000e-01 5.130000e-01 0.000000e+00
3.630000e-01 5.130000e-01 0.000000e+00
5.445000e-01 5.130000e-01 0.000000e+00
7.260000e-01 5.130000e-01 0.000000e+00
7.260000e-01 0.000000e+00 0.000000e+00
9.075000e-01 0.000000e+00 0.000000e+00
1.089000e+00 0.000000e+00 0.000000e+00
1.270500e+00 0.000000e+00 0.000000e+00
1.452000e+00 0.000000e+00 0.000000e+00
7.260000e-01 1.282500e-01 0.000000e+00
9.075000e-01 1.282500e-01 0.000000e+00
1.089000e+00 1.282500e-01 0.000000e+00
1.270500e+00 1.282500e-01 0.000000e+00
1.452000e+00 1.282500e-01 0.000000e+00
7.260000e-01 2.565000e-01 0.000000e+00
9.075000e-01 2.565000e-01 0.000000e+00
1.089000e+00 2.565000e-01 0.000000e+00
1.270500e+00 2.565000e-01 0.000000e+00
1.452000e+00 2.565000e-01 0.000000e+00
7.260000e-01 3.847500e-01 0.000000e+00
9.075000e-01 3.847500e-01 0.000000e+00
1.089000e+00 3.847500e-01 0.000000e+00
1.270500e+00 3.847500e-01 0.000000e+00
1.452000e+00 3.847500e-01 0.000000e+00
7.260000e-01 5.130000e-01 0.000000e+00
9.075000e-01 5.130000e-01 0.000000e+00
1.089000e+00 5.130000e-01 0.000000e+00
1.270500e+00 5.130000e-01 0.000000e+00
1.452000e+00 5.130000e-01 0.000000e+00
1.452000e+00 0.000000e+00 0.000000e+00
1.633500e+00 0.000000e+00 0.000000e+00
1.815000e+00 0.000000e+00 0.000000e+00
1.996500e+00 0.000000e+00 0.000000e+00
2.178000e+00 0.000000e+00 0.000000e+00
1.452000e+00 1.282500e-01 0.000000e+00
1.633500e+00 1.282500e-01 0.000000e+00
1.815000e+00 1.282500e-01 0.000000e+00
1.996500e+00 1.282500e-01 0.000000e+00
2.178000e+00 1.282500e-01 0.000000e+00
1.452000e+00 2.565000e-01 0.000000e+00
1.633500e+00 2.565000e-01 0.000000e+00
1.815000e+00 2.565000e-01 0.000000e+00
1.996500e+00 2.565000e-01 0.000000e+00
2.178000e+00 2.565000e-01 0.000000e+00
1.452000e+00 3.847500e-01 0.000000e+00
1.633500e+00 3.847500e-01 0.000000e+00
1.815000e+00 3.847500e-01 0.000000e+00
1.996500e+00 3.847500e-01 0.000000e+00
2.178000e+00 3.847500e-01 0.000000e+00
1.452000e+00 5.130000e-01 0.000000e+00
1.633500e+00 5.130000e-01 0.000000e+00
1.815000e+00 5.130000e-01 0.000000e+00
1.996500e+00 5.130000e-01 0.000000e+00
2.178000e+00 5.130000e-01 0.000000e+00
2.178000e+00 0.000000e+00 0.000000e+00
2.359500e+00 0.000000e+00 0.000000e+00
2.541000e+00 0.000000e+00 0.000000e+00
2.722500e+00 0.000000e+00 0.000000e+00
2.904000e+00 0.000000e+00 0.000000e+00
2.178000e+00 1.282500e-01 0.000000e+00
2.359500e+00 1.282500e-01 0.000000e+00
2.541000e+00 1.282500e-01 0.000000e+00
2.722500e+00 1.282500e-01 0.000000e+00
2.904000e+00 1.282500e-01 0.000000e+00
2.178000e+00 2.565000e-01 0.000000e+00
2.359500e+00 2.565000e-01 0.000000e+00
2.541000e+00 2.565000e-01 0.000000e+00
2.722500e+00 2.565000e-01 0.000000e+00
2.904000e+00 2.565000e-01 0.000000e+00
2.178000e+00 3.847500e-01 0.000000e+00
2.359500e+00 3.847500e-01 0.000000e+00
2.541000e+00 3.847500e-01 0.000000e+00
2.722500e+00 3.847500e-01 0.000000e+00
2.904000e+00 3.847500e-01 0.000000e+00
2.178000e+00 5.130000e-01 0.000000e+00
2.359500e+00 5.130000e-01 0.000000e+00
2.541000e+00 5.130000e-01 0.000000e+00
2.722500e+00 5.130000e-01 0.000000e+00
2.904000e+00 5.130000e-01 0.000000e+00
2.904000e+00 0.000000e+00 0.000000e+00
3.085500e+00 0.000000e+00 0.000000e+00
3.267000e+00 0.000000e+00 0.000000e+00
3.448500e+00 0.000000e+00 0.000000e+00
3.630000e+00 0.000000e+00 0.000000e+00
2.904000e+00 1.282500e-01 0.000000e+00
3.085500e+00 1.282500e-01 0.000000e+00
3.267000e+00 1.282500e-01 0.000000e+00
3.448500e+00 1.282500e-01 0.000000e+00
3.630000e+00 1.282500e-01 0.000000e+00
2.904000e+00 2.565000e-01 0.000000e+00
3.085500e+00 2.565000e-01 0.000000e+00
3.267000e+00 2.565000e-01 0.000000e+00
3.448500e+00 2.565000e-01 0.000000e+00
3.630000e+00 2.565000e-01 0.000000e+00
2.904000e+00 3.847500e-01 0.000000e+00
3.085500e+00 3.847500e-01 0.000000e+00
3.267000e+00 3.847500e-01 0.000000e+00
3.448500e+00 3.847500e-01 0.000000e+00
3.630000e+00 3.847500e-01 0.000000e+00
2.904000e+00 5.130000e-01 0.000000e+00
[...]
<PointData>
<DataArray type="Float32" Name="V1" format="ascii">
0.000000e+00
0.000000e+00
0.000000e+00
0.000000e+00
0.000000e+00
1.264110e-02
1.102610e-02
9.737340e-03
8.774780e-03
8.138430e-03
2.028400e-02
1.820750e-02
1.648420e-02
1.511400e-02
1.409710e-02
2.292870e-02
2.154410e-02
2.024040e-02
1.901780e-02
1.787600e-02
2.057510e-02
2.103590e-02
2.100620e-02
2.048600e-02
1.947520e-02
0.000000e+00
0.000000e+00
0.000000e+00
0.000000e+00
0.000000e+00
8.138430e-03
7.084710e-03
6.185090e-03
5.439580e-03
4.848180e-03
1.409710e-02
1.252560e-02
1.107130e-02
9.734230e-03
8.514290e-03
1.787600e-02
1.632280e-02
1.465880e-02
1.288400e-02
1.099840e-02
1.947520e-02
1.847620e-02
1.694740e-02
1.488870e-02
1.230030e-02
0.000000e+00
0.000000e+00
0.000000e+00
0.000000e+00
0.000000e+00
4.848180e-03
3.627390e-03
3.210380e-03
3.597150e-03
4.787700e-03
8.514290e-03
6.244970e-03
5.275680e-03
5.606450e-03
7.237250e-03
1.099840e-02
7.852740e-03
6.195920e-03
6.027890e-03
7.348660e-03
1.230030e-02
8.450700e-03
5.971080e-03
4.861490e-03
5.121930e-03
0.000000e+00
0.000000e+00
0.000000e+00
0.000000e+00
0.000000e+00
4.787700e-03
3.175730e-03
1.387840e-03
-5.759620e-04
-2.715680e-03
7.237250e-03
3.039440e-03
-1.274800e-03
-5.705490e-03
-1.025260e-02
7.348660e-03
-4.088480e-04
-7.987930e-03
-1.538860e-02
-2.261080e-02
5.121930e-03
-7.169150e-03
-1.875150e-02
-2.962520e-02
-3.979020e-02
0.000000e+00
0.000000e+00
0.000000e+00
0.000000e+00
0.000000e+00
-2.715680e-03
-1.208800e-02
-2.258130e-02
-3.419550e-02
-4.693070e-02
-1.025260e-02
-2.523360e-02
-4.112050e-02
-5.791330e-02
-7.561200e-02
-2.261080e-02
-3.943680e-02
-5.561770e-02
-7.115340e-02
-8.604400e-02
-3.979020e-02
-5.469750e-02
-6.607270e-02
-7.391580e-02
-7.822670e-02
0.000000e+00
0.000000e+00
0.000000e+00
0.000000e+00
0.000000e+00
-4.693070e-02
-4.295090e-02
-3.801870e-02
-3.213410e-02
-2.529710e-02
-7.561200e-02
-6.855280e-02
-5.998000e-02
-4.989340e-02
-3.829310e-02
-8.604400e-02
-7.680590e-02
-6.588390e-02
-5.327790e-02
-3.898800e-02
-7.822670e-02
-6.771010e-02
-5.573040e-02
-4.228760e-02
-2.738170e-02
0.000000e+00
0.000000e+00
0.000000e+00
0.000000e+00
0.000000e+00
-2.529710e-02
-2.004150e-02
-1.518430e-02
-1.072550e-02
-6.665130e-03
-3.829310e-02
-3.041600e-02
-2.312130e-02
-1.640890e-02
-1.027900e-02
-3.898800e-02
-3.112350e-02
-2.381090e-02
-1.705030e-02
-1.084160e-02
-2.738170e-02
-2.216390e-02
-1.725320e-02
-1.264950e-02
-8.352850e-03
0.000000e+00
0.000000e+00
0.000000e+00
0.000000e+00
0.000000e+00
-6.665130e-03
-1.417210e-03
2.373120e-03
4.705870e-03
5.581040e-03
-1.027900e-02
-1.904270e-03
4.205270e-03
8.049620e-03
9.628800e-03
-1.084160e-02
-1.461170e-03
5.496430e-03
1.003120e-02
1.214330e-02
-8.352850e-03
-8.791340e-05
6.246620e-03
1.065070e-02
1.312450e-02
0.000000e+00
0.000000e+00
0.000000e+00
0.000000e+00
0.000000e+00
5.581040e-03
6.677300e-03
7.658350e-03
8.524200e-03
9.274840e-03
9.628800e-03
1.136120e-02
1.291850e-02
1.430070e-02
1.550800e-02
1.214330e-02
1.405160e-02
1.578040e-02
1.732960e-02
1.869940e-02
1.312450e-02
1.474860e-02
1.624410e-02
1.761090e-02
1.884900e-02
0.000000e+00
0.000000e+00
0.000000e+00
0.000000e+00
0.000000e+00
9.274840e-03
9.943870e-03
1.064690e-02
1.138390e-02
1.215490e-02
1.550800e-02
1.676990e-02
1.799710e-02
1.918960e-02
2.034730e-02
1.869940e-02
2.047810e-02
2.205070e-02
2.341710e-02
2.457740e-02
1.884900e-02
2.106840e-02
2.280760e-02
2.406650e-02
2.484510e-02
2.057510e-02
2.103590e-02
2.100620e-02
2.048600e-02
1.947520e-02
2.078850e-02
2.088100e-02
2.069920e-02
2.024300e-02
1.951250e-02
2.103660e-02
2.084070e-02
2.053260e-02
2.011200e-02
1.957920e-02
2.131930e-02
2.091500e-02
2.050630e-02
2.009310e-02
1.967540e-02
2.163650e-02
2.110380e-02
2.062040e-02
2.018610e-02
1.980110e-02
1.947520e-02
1.847620e-02
1.694740e-02
1.488870e-02
1.230030e-02
1.951250e-02
1.871520e-02
1.738740e-02
1.552920e-02
1.314050e-02
1.957920e-02
1.887910e-02
1.774040e-02
1.616330e-02
1.414760e-02
1.967540e-02
1.896790e-02
1.800640e-02
1.679100e-02
1.532170e-02
1.980110e-02
1.898160e-02
1.818540e-02
1.741250e-02
1.666280e-02
1.230030e-02
8.450700e-03
5.971080e-03
4.861490e-03
5.121930e-03
1.314050e-02
8.707320e-03
6.209160e-03
5.646030e-03
7.017950e-03
1.414760e-02
8.974680e-03
6.573370e-03
6.943720e-03
1.008570e-02
1.532170e-02
9.252790e-03
7.063720e-03
8.754550e-03
1.432530e-02
1.666280e-02
9.541640e-03
7.680220e-03
1.107850e-02
1.973660e-02
5.121930e-03
-7.169150e-03
-1.875150e-02
-2.962520e-02
-3.979020e-02
7.017950e-03
-9.271930e-03
-2.257340e-02
-3.288650e-02
-4.021120e-02
1.008570e-02
-8.001370e-03
-2.185510e-02
-3.147550e-02
-3.686260e-02
1.432530e-02
-3.357480e-03
-1.659670e-02
-2.539240e-02
-2.974460e-02
1.973660e-02
4.659750e-03
-6.798150e-03
-1.463710e-02
-1.885720e-02
-3.979020e-02
-5.469750e-02
-6.607270e-02
-7.391580e-02
-7.822670e-02
-4.021120e-02
-5.059070e-02
-6.022820e-02
-6.912360e-02
-7.727700e-02
-3.686260e-02
-4.188920e-02
-4.816070e-02
-5.567710e-02
-6.443840e-02
-2.974460e-02
-2.859310e-02
-2.987030e-02
-3.357630e-02
-3.971100e-02
-1.885720e-02
-1.070240e-02
-5.357030e-03
-2.821170e-03
-3.094770e-03
-7.822670e-02
-6.771010e-02
-5.573040e-02
-4.228760e-02
-2.738170e-02
-7.727700e-02
-6.637590e-02
-5.384030e-02
-3.967010e-02
-2.386540e-02
-6.443840e-02
-5.475970e-02
-4.366130e-02
-3.114320e-02
-1.720540e-02
-3.971100e-02
-3.286140e-02
-2.519330e-02
-1.670690e-02
-7.401960e-03
-3.094770e-03
-6.810540e-04
1.563490e-03
3.638870e-03
5.545060e-03
-2.738170e-02
-2.216390e-02
-1.725320e-02
-1.264950e-02
-8.352850e-03
-2.386540e-02
-1.768800e-02
-1.289830e-02
-9.496280e-03
-7.481920e-03
-1.720540e-02
-1.097510e-02
-6.867980e-03
-4.884020e-03
-5.023240e-03
-7.401960e-03
-2.025310e-03
8.377650e-04
1.187260e-03
-9.768130e-04
5.545060e-03
9.161430e-03
1.021890e-02
8.717580e-03
4.657360e-03
-8.352850e-03
-8.791340e-05
6.246620e-03
1.065070e-02
1.312450e-02
-7.481920e-03
1.522630e-03
8.207400e-03
1.257240e-02
1.461770e-02
-5.023240e-03
3.859890e-03
1.033450e-02
1.440060e-02
1.605810e-02
-9.768130e-04
6.923880e-03
1.262790e-02
1.613530e-02
1.744590e-02
4.657360e-03
1.071460e-02
1.508760e-02
1.777640e-02
1.878110e-02
1.312450e-02
1.474860e-02
1.624410e-02
1.761090e-02
1.884900e-02
1.461770e-02
1.569500e-02
1.674690e-02
1.777320e-02
1.877400e-02
1.605810e-02
1.667330e-02
1.733890e-02
1.805500e-02
1.882160e-02
1.744590e-02
1.768330e-02
1.802020e-02
1.845640e-02
1.899210e-02
1.878110e-02
1.872520e-02
1.879060e-02
1.897730e-02
1.928520e-02
1.884900e-02
2.106840e-02
2.280760e-02
2.406650e-02
2.484510e-02
1.877400e-02
2.118260e-02
2.298850e-02
2.419180e-02
2.479240e-02
1.882160e-02
2.135600e-02
2.317840e-02
2.428880e-02
2.468710e-02
1.899210e-02
2.158870e-02
2.337720e-02
2.435740e-02
2.452930e-02
1.928520e-02
2.188070e-02
2.358480e-02
2.439760e-02
2.431890e-02
2.163650e-02
2.110380e-02
2.062040e-02
2.018610e-02
1.980110e-02
2.197900e-02
2.145510e-02
2.102660e-02
2.069340e-02
2.045540e-02
2.233590e-02
2.184560e-02
2.148020e-02
2.123970e-02
2.112400e-02
2.270730e-02
2.227540e-02
2.198130e-02
2.182510e-02
2.180670e-02
2.309330e-02
2.274430e-02
2.252970e-02
2.244950e-02
2.250360e-02
1.980110e-02
1.898160e-02
1.818540e-02
1.741250e-02
1.666280e-02
2.045540e-02
1.942970e-02
1.872910e-02
1.835380e-02
1.830380e-02
2.112400e-02
1.995200e-02
1.933960e-02
1.928690e-02
1.979390e-02
2.180670e-02
2.054850e-02
2.001680e-02
2.021160e-02
2.113290e-02
2.250360e-02
2.121920e-02
2.076070e-02
2.112790e-02
2.232090e-02
1.666280e-02
9.541640e-03
7.680220e-03
1.107850e-02
1.973660e-02
1.830380e-02
1.177250e-02
1.015470e-02
1.345040e-02
2.165960e-02
1.979390e-02
1.428700e-02
1.303000e-02
1.602280e-02
2.326550e-02
2.113290e-02
1.708510e-02
1.630610e-02
1.879590e-02
2.455440e-02
2.232090e-02
2.016690e-02
1.998310e-02
2.176950e-02
2.552610e-02
1.973660e-02
4.659750e-03
-6.798150e-03
-1.463710e-02
-1.885720e-02
2.165960e-02
1.378110e-02
7.128040e-03
1.700430e-03
-2.501740e-03
2.326550e-02
2.087820e-02
1.821610e-02
1.527920e-02
1.206760e-02
2.455440e-02
2.595100e-02
2.646600e-02
2.609930e-02
2.485090e-02
2.552610e-02
2.899960e-02
3.187770e-02
3.416060e-02
3.584810e-02
-1.885720e-02
-1.070240e-02
-5.357030e-03
-2.821170e-03
-3.094770e-03
-2.501740e-03
9.327430e-03
1.947630e-02
2.794470e-02
3.473280e-02
1.206760e-02
2.577480e-02
3.846660e-02
5.014300e-02
6.080400e-02
2.485090e-02
3.863980e-02
5.161410e-02
6.377370e-02
7.511870e-02
3.584810e-02
4.792240e-02
5.891870e-02
6.883690e-02
7.767700e-02
-3.094770e-03
-6.810540e-04
1.563490e-03
3.638870e-03
5.545060e-03
3.473280e-02
2.774930e-02
2.219730e-02
1.807670e-02
1.538770e-02
6.080400e-02
4.858580e-02
3.851780e-02
3.060020e-02
2.483280e-02
7.511870e-02
6.182830e-02
5.052510e-02
4.120910e-02
3.388030e-02
7.767700e-02
6.747690e-02
5.821910e-02
4.990360e-02
4.253030e-02
5.545060e-03
9.161430e-03
1.021890e-02
8.717580e-03
4.657360e-03
1.538770e-02
1.721590e-02
1.693740e-02
1.455220e-02
1.006010e-02
2.483280e-02
2.471420e-02
2.301630e-02
1.973900e-02
1.488220e-02
3.388030e-02
3.165640e-02
2.845560e-02
2.427800e-02
1.912350e-02
4.253030e-02
3.804240e-02
3.325540e-02
2.816930e-02
2.278410e-02
4.657360e-03
1.071460e-02
1.508760e-02
1.777640e-02
1.878110e-02
1.006010e-02
1.415020e-02
1.714680e-02
1.904980e-02
1.985940e-02
1.488220e-02
1.730170e-02
1.911500e-02
2.032230e-02
2.092340e-02
1.912350e-02
2.016900e-02
2.099250e-02
2.159390e-02
2.197320e-02
2.278410e-02
2.275220e-02
2.277900e-02
2.286450e-02
2.300870e-02
1.878110e-02
1.872520e-02
1.879060e-02
1.897730e-02
1.928520e-02
1.985940e-02
1.980580e-02
1.980380e-02
1.985350e-02
1.995480e-02
2.092340e-02
2.085230e-02
2.078140e-02
2.071070e-02
2.064010e-02
2.197320e-02
2.186490e-02
2.172340e-02
2.154880e-02
2.134110e-02
2.300870e-02
2.284350e-02
2.262990e-02
2.236800e-02
2.205770e-02
1.928520e-02
2.188070e-02
2.358480e-02
2.439760e-02
2.431890e-02
1.995480e-02
2.220750e-02
2.369380e-02
2.441370e-02
2.436740e-02
2.064010e-02
2.254970e-02
2.381580e-02
2.443860e-02
2.441790e-02
2.134110e-02
2.290730e-02
2.395100e-02
2.447210e-02
2.447070e-02
2.205770e-02
2.328040e-02
2.409930e-02
2.451430e-02
2.452550e-02
2.309330e-02
2.274430e-02
2.252970e-02
2.244950e-02
2.250360e-02
2.348320e-02
2.318470e-02
2.302790e-02
2.301290e-02
2.313960e-02
2.386930e-02
2.361860e-02
2.351420e-02
2.355600e-02
2.374400e-02
2.425160e-02
2.404620e-02
2.398850e-02
2.407870e-02
2.431680e-02
2.463000e-02
2.446720e-02
2.445100e-02
2.458120e-02
2.485780e-02
2.250360e-02
2.121920e-02
2.076070e-02
2.112790e-02
2.232090e-02
2.313960e-02
2.206620e-02
2.172420e-02
2.211340e-02
2.323400e-02
2.374400e-02
2.290530e-02
2.268720e-02
2.308960e-02
2.411250e-02
2.431680e-02
2.373650e-02
2.364970e-02
2.405630e-02
2.495630e-02
2.485780e-02
2.455980e-02
2.461170e-02
2.501370e-02
2.576560e-02
2.232090e-02
2.016690e-02
1.998310e-02
2.176950e-02
2.552610e-02
2.323400e-02
2.222300e-02
2.254940e-02
2.421330e-02
2.721470e-02
2.411250e-02
2.394550e-02
2.463920e-02
2.619360e-02
2.860880e-02
2.495630e-02
2.533440e-02
2.625250e-02
2.771040e-02
2.970830e-02
2.576560e-02
2.638990e-02
2.738920e-02
2.876370e-02
3.051340e-02
2.552610e-02
2.899960e-02
3.187770e-02
3.416060e-02
3.584810e-02
2.721470e-02
3.087890e-02
3.427030e-02
3.738870e-02
4.023440e-02
2.860880e-02
3.237350e-02
3.600890e-02
3.951490e-02
4.289140e-02
2.970830e-02
3.348340e-02
3.709370e-02
4.053900e-02
4.381940e-02
3.051340e-02
3.420870e-02
3.752450e-02
4.046100e-02
4.301810e-02
3.584810e-02
4.792240e-02
5.891870e-02
6.883690e-02
7.767700e-02
4.023440e-02
5.109450e-02
6.072900e-02
6.913790e-02
7.632110e-02
4.289140e-02
5.222940e-02
6.032730e-02
6.718520e-02
7.280300e-02
4.381940e-02
5.132710e-02
5.771360e-02
6.297870e-02
6.712260e-02
4.301810e-02
4.838770e-02
5.288780e-02
5.651860e-02
5.927990e-02
7.767700e-02
6.747690e-02
5.821910e-02
4.990360e-02
4.253030e-02
7.632110e-02
6.694420e-02
5.836900e-02
5.059540e-02
4.362350e-02
7.280300e-02
6.488450e-02
5.757280e-02
5.086770e-02
4.476940e-02
6.712260e-02
6.129790e-02
5.583060e-02
5.072060e-02
4.596790e-02
5.927990e-02
5.618430e-02
5.314230e-02
5.015390e-02
4.721910e-02
4.253030e-02
3.804240e-02
3.325540e-02
2.816930e-02
2.278410e-02
4.362350e-02
3.891650e-02
3.423920e-02
2.959140e-02
2.497320e-02
4.476940e-02
3.993770e-02
3.535840e-02
3.103130e-02
2.695660e-02
4.596790e-02
4.110600e-02
3.661310e-02
3.248920e-02
2.873430e-02
4.721910e-02
4.242130e-02
3.800320e-02
3.396490e-02
3.030640e-02
2.278410e-02
2.275220e-02
2.277900e-02
2.286450e-02
2.300870e-02
2.497320e-02
2.467230e-02
2.441920e-02
2.421390e-02
2.405640e-02
2.695660e-02
2.638210e-02
2.586360e-02
2.540130e-02
2.499500e-02
2.873430e-02
2.788170e-02
2.711240e-02
2.642660e-02
2.582430e-02
3.030640e-02
2.917100e-02
2.816550e-02
2.729000e-02
2.654440e-02
2.300870e-02
2.284350e-02
2.262990e-02
2.236800e-02
2.205770e-02
2.405640e-02
2.374800e-02
2.341550e-02
2.305890e-02
2.267810e-02
2.499500e-02
2.456290e-02
2.413190e-02
2.370190e-02
2.327300e-02
2.582430e-02
2.528820e-02
2.477920e-02
2.429720e-02
2.384230e-02
2.654440e-02
2.592400e-02
2.535740e-02
2.484480e-02
2.438600e-02
2.205770e-02
2.328040e-02
2.409930e-02
2.451430e-02
2.452550e-02
2.267810e-02
2.369320e-02
2.435370e-02
2.465950e-02
2.461080e-02
2.327300e-02
2.409100e-02
2.460110e-02
2.480320e-02
2.469740e-02
2.384230e-02
2.447390e-02
2.484160e-02
2.494540e-02
2.478530e-02
2.438600e-02
2.484180e-02
2.507520e-02
2.508610e-02
2.487460e-02
2.463000e-02
2.446720e-02
2.445100e-02
2.458120e-02
2.485780e-02
2.499690e-02
2.488300e-02
2.490350e-02
2.505850e-02
2.534780e-02
2.534870e-02
2.528270e-02
2.533750e-02
2.551330e-02
2.580990e-02
2.568540e-02
2.566620e-02
2.575290e-02
2.594550e-02
2.624400e-02
2.600690e-02
2.603360e-02
2.614970e-02
2.635530e-02
2.665030e-02
2.485780e-02
2.455980e-02
2.461170e-02
2.501370e-02
2.576560e-02
2.534780e-02
2.521900e-02
2.537230e-02
2.580780e-02
2.652560e-02
2.580990e-02
2.581820e-02
2.605290e-02
2.651410e-02
2.720170e-02
2.624400e-02
2.635740e-02
2.665350e-02
2.713240e-02
2.779410e-02
2.665030e-02
2.683670e-02
2.717420e-02
2.766290e-02
2.830270e-02
2.576560e-02
2.638990e-02
2.738920e-02
2.876370e-02
3.051340e-02
2.652560e-02
2.732030e-02
2.837100e-02
2.967760e-02
3.124010e-02
2.720170e-02
2.812270e-02
2.920330e-02
3.044350e-02
3.184330e-02
2.779410e-02
2.879710e-02
2.988620e-02
3.106160e-02
3.232320e-02
2.830270e-02
2.934340e-02
3.041970e-02
3.153180e-02
3.267960e-02
3.051340e-02
3.420870e-02
3.752450e-02
4.046100e-02
4.301810e-02
3.124010e-02
3.463000e-02
3.765330e-02
4.030990e-02
4.259970e-02
3.184330e-02
3.488240e-02
3.758850e-02
3.996160e-02
4.200170e-02
3.232320e-02
3.496570e-02
3.733000e-02
3.941620e-02
4.122410e-02
3.267960e-02
3.488000e-02
3.687800e-02
3.867360e-02
4.026680e-02
4.301810e-02
4.838770e-02
5.288780e-02
5.651860e-02
5.927990e-02
4.259970e-02
4.676340e-02
5.027170e-02
5.312450e-02
5.532190e-02
4.200170e-02
4.520130e-02
4.790730e-02
5.011970e-02
5.183860e-02
4.122410e-02
4.370120e-02
4.579460e-02
4.750410e-02
4.882990e-02
4.026680e-02
4.226330e-02
4.393360e-02
4.527780e-02
4.629590e-02
5.927990e-02
5.618430e-02
5.314230e-02
5.015390e-02
4.721910e-02
5.532190e-02
5.295940e-02
5.052050e-02
4.800520e-02
4.541350e-02
5.183860e-02
5.008110e-02
4.817310e-02
4.611480e-02
4.390600e-02
4.882990e-02
4.754940e-02
4.610030e-02
4.448280e-02
4.269680e-02
4.629590e-02
4.536420e-02
4.430200e-02
4.310920e-02
4.178580e-02
4.721910e-02
4.242130e-02
3.800320e-02
3.396490e-02
3.030640e-02
4.541350e-02
4.130670e-02
3.758130e-02
3.423710e-02
3.127420e-02
4.390600e-02
4.044700e-02
3.732580e-02
3.454230e-02
3.209670e-02
4.269680e-02
3.984200e-02
3.723660e-02
3.488060e-02
3.277410e-02
4.178580e-02
3.949180e-02
3.731380e-02
3.525200e-02
3.330620e-02
3.030640e-02
2.917100e-02
2.816550e-02
2.729000e-02
2.654440e-02
3.127420e-02
3.009940e-02
2.902390e-02
2.804770e-02
2.717080e-02
3.209670e-02
3.085580e-02
2.970940e-02
2.865750e-02
2.770010e-02
3.277410e-02
3.144040e-02
3.022220e-02
2.911940e-02
2.813220e-02
3.330620e-02
3.185310e-02
3.056220e-02
2.943350e-02
2.846710e-02
2.654440e-02
2.592400e-02
2.535740e-02
2.484480e-02
2.438600e-02
2.717080e-02
2.652950e-02
2.595150e-02
2.543690e-02
2.498570e-02
2.770010e-02
2.705300e-02
2.647380e-02
2.596240e-02
2.551890e-02
2.813220e-02
2.749460e-02
2.692430e-02
2.642120e-02
2.598540e-02
2.846710e-02
2.785430e-02
2.730300e-02
2.681340e-02
2.638540e-02
2.438600e-02
2.484180e-02
2.507520e-02
2.508610e-02
2.487460e-02
2.498570e-02
2.519810e-02
2.527170e-02
2.520650e-02
2.500270e-02
2.551890e-02
2.551680e-02
2.545240e-02
2.532570e-02
2.513670e-02
2.598540e-02
2.579810e-02
2.561750e-02
2.544370e-02
2.527660e-02
2.638540e-02
2.604190e-02
2.576690e-02
2.556040e-02
2.542240e-02
2.600690e-02
2.603360e-02
2.614970e-02
2.635530e-02
2.665030e-02
2.630990e-02
2.637200e-02
2.651230e-02
2.673070e-02
2.702730e-02
2.659390e-02
2.668780e-02
2.684940e-02
2.707870e-02
2.737550e-02
2.685910e-02
2.698110e-02
2.716100e-02
2.739910e-02
2.769510e-02
2.710540e-02
2.725170e-02
2.744720e-02
2.769190e-02
2.798590e-02
2.665030e-02
2.683670e-02
2.717420e-02
2.766290e-02
2.830270e-02
2.702730e-02
2.726510e-02
2.762960e-02
2.812080e-02
2.873880e-02
2.737550e-02
2.765350e-02
2.803600e-02
2.852310e-02
2.911480e-02
2.769510e-02
2.800190e-02
2.839350e-02
2.886970e-02
2.943060e-02
2.798590e-02
2.831040e-02
2.870200e-02
2.916060e-02
2.968630e-02
2.830270e-02
2.934340e-02
3.041970e-02
3.153180e-02
3.267960e-02
2.873880e-02
2.974460e-02
3.077090e-02
3.181750e-02
3.288460e-02
2.911480e-02
3.007320e-02
3.104060e-02
3.201680e-02
3.300190e-02
2.943060e-02
3.032920e-02
3.122880e-02
3.212950e-02
3.303130e-02
2.968630e-02
3.051250e-02
3.133570e-02
3.215580e-02
3.297290e-02
3.267960e-02
3.488000e-02
3.687800e-02
3.867360e-02
4.026680e-02
3.288460e-02
3.479820e-02
3.653240e-02
3.808720e-02
3.946250e-02
3.300190e-02
3.466250e-02
3.616420e-02
3.750690e-02
3.869070e-02
3.303130e-02
3.447280e-02
3.577340e-02
3.693290e-02
3.795150e-02
3.297290e-02
3.422910e-02
3.535990e-02
3.636510e-02
3.724480e-02
4.026680e-02
4.226330e-02
4.393360e-02
4.527780e-02
4.629590e-02
3.946250e-02
4.113880e-02
4.252340e-02
4.361630e-02
4.441740e-02
3.869070e-02
4.008210e-02
4.121800e-02
4.209830e-02
4.272310e-02
3.795150e-02
3.909310e-02
4.001720e-02
4.072380e-02
4.121300e-02
3.724480e-02
3.817180e-02
3.892110e-02
3.949290e-02
3.988700e-02
4.629590e-02
4.536420e-02
4.430200e-02
4.310920e-02
4.178580e-02
4.441740e-02
4.360260e-02
4.266980e-02
4.161920e-02
4.045070e-02
4.272310e-02
4.203990e-02
4.124820e-02
4.034800e-02
3.933940e-02
4.121300e-02
4.067610e-02
4.003700e-02
3.929550e-02
3.845180e-02
3.988700e-02
3.951130e-02
3.903620e-02
3.846180e-02
3.778810e-02
4.178580e-02
3.949180e-02
3.731380e-02
3.525200e-02
3.330620e-02
4.045070e-02
3.848970e-02
3.664050e-02
3.490300e-02
3.327720e-02
3.933940e-02
3.767200e-02
3.610120e-02
3.462700e-02
3.324930e-02
3.845180e-02
3.703860e-02
3.569600e-02
3.442390e-02
3.322240e-02
3.778810e-02
3.658960e-02
3.542490e-02
3.429380e-02
3.319660e-02
3.330620e-02
3.185310e-02
3.056220e-02
2.943350e-02
2.846710e-02
3.327720e-02
3.197410e-02
3.079470e-02
2.973890e-02
2.880680e-02
3.324930e-02
3.206410e-02
3.097630e-02
2.998580e-02
2.909270e-02
3.322240e-02
3.212310e-02
3.110710e-02
3.017430e-02
2.932470e-02
3.319660e-02
3.215120e-02
3.118700e-02
3.030430e-02
2.950280e-02
2.846710e-02
2.785430e-02
2.730300e-02
2.681340e-02
2.638540e-02
2.880680e-02
2.818590e-02
2.762440e-02
2.712210e-02
2.667920e-02
2.909270e-02
2.846700e-02
2.789770e-02
2.738480e-02
2.692830e-02
2.932470e-02
2.869750e-02
2.812320e-02
2.760160e-02
2.713290e-02
2.950280e-02
2.887740e-02
2.830070e-02
2.777250e-02
2.729280e-02
2.638540e-02
2.604190e-02
2.576690e-02
2.556040e-02
2.542240e-02
2.667920e-02
2.630500e-02
2.599450e-02
2.574760e-02
2.556440e-02
2.692830e-02
2.653540e-02
2.619920e-02
2.591970e-02
2.569680e-02
2.713290e-02
2.673320e-02
2.638110e-02
2.607670e-02
2.581980e-02
2.729280e-02
2.689840e-02
2.654020e-02
2.621850e-02
2.593320e-02
2.710540e-02
2.725170e-02
2.744720e-02
2.769190e-02
2.798590e-02
2.733260e-02
2.749560e-02
2.770080e-02
2.794830e-02
2.823820e-02
2.754220e-02
2.771920e-02
2.793180e-02
2.817990e-02
2.846340e-02
2.773410e-02
2.792270e-02
2.814020e-02
2.838650e-02