<?xml version="1.0"?>
<VTKFile type="UnstructuredGrid" version="0.1" byte_order="LittleEndian" compressor="vtkZLibDataCompressor">
<UnstructuredGrid>
<Piece NumberOfPoints="2500" NumberOfCells="1600">
<Points>
<DataArray type="Float32" NumberOfComponents="3" format="ascii">
-3.630000e+00 0.000000e+00 0.000000e+00
-3.448500e+00 0.000000e+00 0.000000e+00
-3.267000e+00 0.000000e+00 0.000000e+00
-3.085500e+00 0.000000e+00 0.000000e+00
-2.904000e+00 0.000000e+00 0.000000e+00
-3.630000e+00 1.282500e-01 0.000000e+00
-3.448500e+00 1.282500e-01 0.000000e+00
-3.267000e+00 1.282500e-01 0.000000e+00
-3.085500e+00 1.282500e-01 0.000000e+00
-2.904000e+00 1.282500e-01 0.000000e+00
-3.630000e+00 2.565000e-01 0.000000e+00
-3.448500e+00 2.565000e-01 0.000000e+00
-3.267000e+00 2.565000e-01 0.000000e+00
-3.085500e+00 2.565000e-01 0.000000e+00
-2.904000e+00 2.565000e-01 0.000000e+00
-3.630000e+00 3.847500e-01 0.000000e+00
-3.448500e+00 3.847500e-01 0.000000e+00
-3.267000e+00 3.847500e-01 0.000000e+00
-3.085500e+00 3.847500e-01 0.000000e+00
-2.904000e+00 3.847500e-01 0.000000e+00
-3.630000e+00 5.130000e-01 0.000000e+00
-3.448500e+00 5.130000e-01 0.000000e+00
-3.267000e+00 5.130000e-01 0.000000e+00
-3.085500e+00 5.130000e-01 0.000000e+00
-2.904000e+00 5.130000e-01 0.000000e+00
-2.904000e+00 0.000000e+00 0.000000e+00
-2.722500e+00 0.000000e+00 0.000000e+00
-2.541000e+00 0.000000e+00 0.000000e+00
-2.359500e+00 0.000000e+00 0.000000e+00
-2.178000e+00 0.000000e+00 0.000000e+00
-2.904000e+00 1.282500e-01 0.000000e+00
-2.722500e+00 1.282500e-01 0.000000e+00
-2.541000e+00 1.282500e-01 0.000000e+00
-2.359500e+00 1.282500e-01 0.000000e+00
-2.178000e+00 1.282500e-01 0.000000e+00
-2.904000e+00 2.565000e-01 0.000000e+00
-2.722500e+00 2.565000e-01 0.000000e+00
-2.541000e+00 2.565000e-01 0.000000e+00
-2.359500e+00 2.565000e-01 0.000000e+00
-2.178000e+00 2.565000e-01 0.000000e+00
-2.904000e+00 3.847500e-01 0.000000e+00
-2.722500e+00 3.847500e-01 0.000000e+00
-2.541000e+00 3.847500e-01 0.000000e+00
-2.359500e+00 3.847500e-01 0.000000e+00
-2.178000e+00 3.847500e-01 0.000000e+00
-2.904000e+00 5.130000e-01 0.000000e+00
-2.722500e+00 5.130000e-01 0.000000e+00
-2.541000e+00 5.130000e-01 0.000000e+00
-2.359500e+00 5.130000e-01 0.000000e+00
-2.178000e+00 5.130000e-01 0.000000e+00
-2.178000e+00 0.000000e+00 0.000000e+00
-1.996500e+00 0.000000e+00 0.000000e+00
-1.815000e+00 0.000000e+00 0.000000e+00
-1.633500e+00 0.000000e+00 0.000000e+00
-1.452000e+00 0.000000e+00 0.000000e+00
-2.178000e+00 1.282500e-01 0.000000e+00
-1.996500e+00 1.282500e-01 0.000000e+00
-1.815000e+00 1.282500e-01 0.000000e+00
-1.633500e+00 1.282500e-01 0.000000e+00
-1.452000e+00 1.282500e-01 0.000000e+00
-2.178000e+00 2.565000e-01 0.000000e+00
-1.996500e+00 2.565000e-01 0.000000e+00
-1.815000e+00 2.565000e-01 0.000000e+00
-1.633500e+00 2.565000e-01 0.000000e+00
-1.452000e+00 2.565000e-01 0.000000e+00
-2.178000e+00 3.847500e-01 0.000000e+00
-1.996500e+00 3.847500e-01 0.000000e+00
-1.815000e+00 3.847500e-01 0.000000e+00
-1.633500e+00 3.847500e-01 0.000000e+00
-1.452000e+00 3.847500e-01 0.000000e+00
-2.178000e+00 5.130000e-01 0.000000e+00
-1.996500e+00 5.130000e-01 0.000000e+00
-1.815000e+00 5.130000e-01 0.000000e+00
-1.633500e+00 5.130000e-01 0.000000e+00
-1.452000e+00 5.130000e-01 0.000000e+00
-1.452000e+00 0.000000e+00 0.000000e+00
-1.270500e+00 0.000000e+00 0.000000e+00
-1.089000e+00 0.000000e+00 0.000000e+00
-9.075000e-01 0.000000e+00 0.000000e+00
-7.260000e-01 0.000000e+00 0.000000e+00
-1.452000e+00 1.282500e-01 0.000000e+00
-1.270500e+00 1.282500e-01 0.000000e+00
-1.089000e+00 1.282500e-01 0.000000e+00
-9.075000e-01 1.282500e-01 0.000000e+00
-7.260000e-01 1.282500e-01 0.000000e+00
-1.452000e+00 2.565000e-01 0.000000e+00
-1.270500e+00 2.565000e-01 0.000000e+00
-1.089000e+00 2.565000e-01 0.000000e+00
-9.075000e-01 2.565000e-01 0.000000e+00
-7.260000e-01 2.565000e-01 0.000000e+00
-1.452000e+00 3.847500e-01 0.000000e+00
-1.270500e+00 3.847500e-01 0.000000e+00
-1.089000e+00 3.847500e-01 0.000000e+00
-9.075000e-01 3.847500e-01 0.000000e+00
-7.260000e-01 3.847500e-01 0.000000e+00
-1.452000e+00 5.130000e-01 0.000000e+00
-1.270500e+00 5.130000e-01 0.000000e+00
-1.089000e+00 5.130000e-01 0.000000e+00
-9.075000e-01 5.130000e-01 0.000000e+00
-7.260000e-01 5.130000e-01 0.000000e+00
-7.260000e-01 0.000000e+00 0.000000e+00
-5.445000e-01 0.000000e+00 0.000000e+00
-3.630000e-01 0.000000e+00 0.000000e+00
-1.815000e-01 0.000000e+00 0.000000e+00
0.000000e+00 0.000000e+00 0.000000e+00
-7.260000e-01 1.282500e-01 0.000000e+00
-5.445000e-01 1.282500e-01 0.000000e+00
-3.630000e-01 1.282500e-01 0.000000e+00
-1.815000e-01 1.282500e-01 0.000000e+00
0.000000e+00 1.282500e-01 0.000000e+00
-7.260000e-01 2.565000e-01 0.000000e+00
-5.445000e-01 2.565000e-01 0.000000e+00
-3.630000e-01 2.565000e-01 0.000000e+00
-1.815000e-01 2.565000e-01 0.000000e+00
0.000000e+00 2.565000e-01 0.000000e+00
-7.260000e-01 3.847500e-01 0.000000e+00
-5.445000e-01 3.847500e-01 0.000000e+00
-3.630000e-01 3.847500e-01 0.000000e+00
-1.815000e-01 3.847500e-01 0.000000e+00
0.000000e+00 3.847500e-01 0.000000e+00
-7.260000e-01 5.130000e-01 0.000000e+00
-5.445000e-01 5.130000e-01 0.000000e+00
-3.630000e-01 5.130000e-01 0.000000e+00
-1.815000e-01 5.130000e-01 0.000000e+00
0.000000e+00 5.130000e-01 0.000000e+00
0.000000e+00 0.000000e+00 0.000000e+00
1.815000e-01 0.000000e+00 0.000000e+00
3.630000e-01 0.000000e+00 0.000000e+00
5.445000e-01 0.000000e+00 0.000000e+00
7.260000e-01 0.000000e+00 0.000000e+00
0.000000e+00 1.282500e-01 0.000000e+00
1.815000e-01 1.282500e-01 0.000000e+00
3.630000e-01 1.282500e-01 0.000000e+00
5.445000e-01 1.282500e-01 0.000000e+00
7.260000e-01 1.282500e-01 0.000000e+00
0.000000e+00 2.565000e-01 0.000000e+00
1.815000e-01 2.565000e-01 0.000000e+00
3.630000e-01 2.565000e-01 0.000000e+00
5.445000e-01 2.565000e-01 0.000000e+00
7.260000e-01 2.565000e-01 0.000000e+00
0.000000e+00 3.847500e-01 0.000000e+00
1.815000e-01 3.847500e-01 0.000000e+00
3.630000e-01 3.847500e-01 0.000000e+00
5.445000e-01 3.847500e-01 0.000000e+00
7.260000e-01 3.847500e-01 0.000000e+00
0.000000e+00 5.130000e-01 0.000000e+00
1.815000e-01 5.130000e-01 0.000000e+00
3.630000e-01 5.130000e-01 0.000000e+00
5.445000e-01 5.130000e-01 0.000000e+00
7.260000e-01 5.130000e-01 0.000000e+00
7.260000e-01 0.000000e+00 0.000000e+00
9.075000e-01 0.000000e+00 0.000000e+00
1.089000e+00 0.000000e+00 0.000000e+00
1.270500e+00 0.000000e+00 0.000000e+00
1.452000e+00 0.000000e+00 0.000000e+00
7.260000e-01 1.282500e-01 0.000000e+00
9.075000e-01 1.282500e-01 0.000000e+00
1.089000e+00 1.282500e-01 0.000000e+00
1.270500e+00 1.282500e-01 0.000000e+00
1.452000e+00 1.282500e-01 0.000000e+00
7.260000e-01 2.565000e-01 0.000000e+00
9.075000e-01 2.565000e-01 0.000000e+00
1.089000e+00 2.565000e-01 0.000000e+00
1.270500e+00 2.565000e-01 0.000000e+00
1.452000e+00 2.565000e-01 0.000000e+00
7.260000e-01 3.847500e-01 0.000000e+00
9.075000e-01 3.847500e-01 0.000000e+00
1.089000e+00 3.847500e-01 0.000000e+00
1.270500e+00 3.847500e-01 0.000000e+00
1.452000e+00 3.847500e-01 0.000000e+00
7.260000e-01 5.130000e-01 0.000000e+00
9.075000e-01 5.130000e-01 0.000000e+00
1.089000e+00 5.130000e-01 0.000000e+00
1.270500e+00 5.130000e-01 0.000000e+00
1.452000e+00 5.130000e-01 0.000000e+00
1.452000e+00 0.000000e+00 0.000000e+00
1.633500e+00 0.000000e+00 0.000000e+00
1.815000e+00 0.000000e+00 0.000000e+00
1.996500e+00 0.000000e+00 0.000000e+00
2.178000e+00 0.000000e+00 0.000000e+00
1.452000e+00 1.282500e-01 0.000000e+00
1.633500e+00 1.282500e-01 0.000000e+00
1.815000e+00 1.282500e-01 0.000000e+00
1.996500e+00 1.282500e-01 0.000000e+00
2.178000e+00 1.282500e-01 0.000000e+00
1.452000e+00 2.565000e-01 0.000000e+00
1.633500e+00 2.565000e-01 0.000000e+00
1.815000e+00 2.565000e-01 0.000000e+00
1.996500e+00 2.565000e-01 0.000000e+00
2.178000e+00 2.565000e-01 0.000000e+00
1.452000e+00 3.847500e-01 0.000000e+00
1.633500e+00 3.847500e-01 0.000000e+00
1.815000e+00 3.847500e-01 0.000000e+00
1.996500e+00 3.847500e-01 0.000000e+00
2.178000e+00 3.847500e-01 0.000000e+00
1.452000e+00 5.130000e-01 0.000000e+00
1.633500e+00 5.130000e-01 0.000000e+00
1.815000e+00 5.130000e-01 0.000000e+00
1.996500e+00 5.130000e-01 0.000000e+00
2.178000e+00 5.130000e-01 0.000000e+00
2.178000e+00 0.000000e+00 0.000000e+00
2.359500e+00 0.000000e+00 0.000000e+00
2.541000e+00 0.000000e+00 0.000000e+00
2.722500e+00 0.000000e+00 0.000000e+00
2.904000e+00 0.000000e+00 0.000000e+00
2.178000e+00 1.282500e-01 0.000000e+00
2.359500e+00 1.282500e-01 0.000000e+00
2.541000e+00 1.282500e-01 0.000000e+00
2.722500e+00 1.282500e-01 0.000000e+00
2.904000e+00 1.282500e-01 0.000000e+00
2.178000e+00 2.565000e-01 0.000000e+00
2.359500e+00 2.565000e-01 0.000000e+00
2.541000e+00 2.565000e-01 0.000000e+00
2.722500e+00 2.565000e-01 0.000000e+00
2.904000e+00 2.565000e-01 0.000000e+00
2.178000e+00 3.847500e-01 0.000000e+00
2.359500e+00 3.847500e-01 0.000000e+00
2.541000e+00 3.847500e-01 0.000000e+00
2.722500e+00 3.847500e-01 0.000000e+00
2.904000e+00 3.847500e-01 0.000000e+00
2.178000e+00 5.130000e-01 0.000000e+00
2.359500e+00 5.130000e-01 0.000000e+00
2.541000e+00 5.130000e-01 0.000000e+00
2.722500e+00 5.130000e-01 0.000000e+00
2.904000e+00 5.130000e-01 0.000000e+00
2.904000e+00 0.000000e+00 0.000000e+00
3.085500e+00 0.000000e+00 0.000000e+00
3.267000e+00 0.000000e+00 0.000000e+00
3.448500e+00 0.000000e+00 0.000000e+00
3.630000e+00 0.000000e+00 0.000000e+00
2.904000e+00 1.282500e-01 0.000000e+00
3.085500e+00 1.282500e-01 0.000000e+00
3.267000e+00 1.282500e-01 0.000000e+00
3.448500e+00 1.282500e-01 0.000000e+00
3.630000e+00 1.282500e-01 0.000000e+00
2.904000e+00 2.565000e-01 0.000000e+00
3.085500e+00 2.565000e-01 0.000000e+00
3.267000e+00 2.565000e-01 0.000000e+00
3.448500e+00 2.565000e-01 0.000000e+00
3.630000e+00 2.565000e-01 0.000000e+00
2.904000e+00 3.847500e-01 0.000000e+00
3.085500e+00 3.847500e-01 0.000000e+00
3.267000e+00 3.847500e-01 0.000000e+00
3.448500e+00 3.847500e-01 0.000000e+00
3.630000e+00 3.847500e-01 0.000000e+00
2.904000e+00 5.130000e-01 0.000000e+00
[...]
<PointData>
<DataArray type="Float32" Name="V1" format="ascii">
0.000000e+00
0.000000e+00
0.000000e+00
0.000000e+00
0.000000e+00
1.264110e-02
1.104140e-02
9.687310e-03
8.578940e-03
7.716250e-03
2.028400e-02
1.823620e-02
1.644570e-02
1.491230e-02
1.363620e-02
2.292870e-02
2.158460e-02
2.027500e-02
1.900010e-02
1.775970e-02
2.057510e-02
2.108640e-02
2.117550e-02
2.084230e-02
2.008700e-02
0.000000e+00
0.000000e+00
0.000000e+00
0.000000e+00
0.000000e+00
7.716250e-03
6.731580e-03
6.030520e-03
5.613080e-03
5.479250e-03
1.363620e-02
1.216060e-02
1.106540e-02
1.035070e-02
1.001640e-02
1.775970e-02
1.628700e-02
1.510470e-02
1.421280e-02
1.361140e-02
2.008700e-02
1.911080e-02
1.814830e-02
1.719950e-02
1.626430e-02
0.000000e+00
0.000000e+00
0.000000e+00
0.000000e+00
0.000000e+00
5.479250e-03
5.478380e-03
5.441500e-03
5.368620e-03
5.259740e-03
1.001640e-02
9.932860e-03
9.753950e-03
9.479670e-03
9.110000e-03
1.361140e-02
1.336340e-02
1.293740e-02
1.233310e-02
1.155080e-02
1.626430e-02
1.577010e-02
1.499170e-02
1.392900e-02
1.258210e-02
0.000000e+00
0.000000e+00
0.000000e+00
0.000000e+00
0.000000e+00
5.259740e-03
3.765530e-03
3.657270e-03
4.934960e-03
7.598590e-03
9.110000e-03
6.418660e-03
5.935070e-03
7.659230e-03
1.159110e-02
1.155080e-02
7.959400e-03
6.833400e-03
8.172810e-03
1.197760e-02
1.258210e-02
8.387730e-03
6.352260e-03
6.475710e-03
8.758090e-03
0.000000e+00
0.000000e+00
0.000000e+00
0.000000e+00
0.000000e+00
7.598590e-03
3.415650e-03
-3.332380e-03
-1.264550e-02
-2.452370e-02
1.159110e-02
2.779640e-03
-9.014460e-03
-2.379120e-02
-4.155050e-02
1.197760e-02
-1.908010e-03
-1.704620e-02
-3.343710e-02
-5.108050e-02
8.758090e-03
-1.064730e-02
-2.742770e-02
-4.158320e-02
-5.311360e-02
0.000000e+00
0.000000e+00
0.000000e+00
0.000000e+00
0.000000e+00
-2.452370e-02
-2.346080e-02
-2.238300e-02
-2.129020e-02
-2.018240e-02
-4.155050e-02
-3.873950e-02
-3.612280e-02
-3.370020e-02
-3.147190e-02
-5.108050e-02
-4.583610e-02
-4.121930e-02
-3.723010e-02
-3.386850e-02
-5.311360e-02
-4.475050e-02
-3.767250e-02
-3.187980e-02
-2.737220e-02
0.000000e+00
0.000000e+00
0.000000e+00
0.000000e+00
0.000000e+00
-2.018240e-02
-1.787640e-02
-1.484810e-02
-1.109740e-02
-6.624370e-03
-3.147190e-02
-2.781200e-02
-2.303500e-02
-1.714090e-02
-1.012970e-02
-3.386850e-02
-2.980680e-02
-2.456080e-02
-1.813050e-02
-1.051600e-02
-2.737220e-02
-2.386080e-02
-1.942550e-02
-1.406630e-02
-7.783180e-03
0.000000e+00
0.000000e+00
0.000000e+00
0.000000e+00
0.000000e+00
-6.624370e-03
-2.895960e-03
2.738960e-05
2.145690e-03
3.458930e-03
-1.012970e-02
-4.156590e-03
5.564250e-04
4.009360e-03
6.202200e-03
-1.051600e-02
-3.781880e-03
1.587110e-03
5.591000e-03
8.229810e-03
-7.783180e-03
-1.771830e-03
3.119440e-03
6.890630e-03
9.541760e-03
0.000000e+00
0.000000e+00
0.000000e+00
0.000000e+00
0.000000e+00
3.458930e-03
4.976800e-03
6.190650e-03
7.100470e-03
7.706270e-03
6.202200e-03
8.698090e-03
1.070510e-02
1.222320e-02
1.325240e-02
8.229810e-03
1.116380e-02
1.354330e-02
1.536810e-02
1.663840e-02
9.541760e-03
1.237410e-02
1.470530e-02
1.653530e-02
1.786420e-02
0.000000e+00
0.000000e+00
0.000000e+00
0.000000e+00
0.000000e+00
7.706270e-03
8.285340e-03
8.888860e-03
9.516840e-03
1.016930e-02
1.325240e-02
1.432320e-02
1.538260e-02
1.643060e-02
1.746720e-02
1.663840e-02
1.811360e-02
1.948120e-02
2.074130e-02
2.189390e-02
1.786420e-02
1.965650e-02
2.118470e-02
2.244900e-02
2.344930e-02
2.057510e-02
2.108640e-02
2.117550e-02
2.084230e-02
2.008700e-02
2.078850e-02
2.097390e-02
2.100950e-02
2.089550e-02
2.063180e-02
2.103660e-02
2.096030e-02
2.091590e-02
2.090320e-02
2.092220e-02
2.131930e-02
2.104580e-02
2.089450e-02
2.086530e-02
2.095820e-02
2.163650e-02
2.123030e-02
2.094540e-02
2.078190e-02
2.073970e-02
2.008700e-02
1.911080e-02
1.814830e-02
1.719950e-02
1.626430e-02
2.063180e-02
2.007070e-02
1.942310e-02
1.868900e-02
1.786840e-02
2.092220e-02
2.064260e-02
2.023610e-02
1.970250e-02
1.904190e-02
2.095820e-02
2.082650e-02
2.058700e-02
2.023980e-02
1.978490e-02
2.073970e-02
2.062230e-02
2.047610e-02
2.030110e-02
2.009730e-02
1.626430e-02
1.577010e-02
1.499170e-02
1.392900e-02
1.258210e-02
1.786840e-02
1.696540e-02
1.589440e-02
1.465510e-02
1.324770e-02
1.904190e-02
1.772620e-02
1.646450e-02
1.525680e-02
1.410290e-02
1.978490e-02
1.805250e-02
1.670220e-02
1.573400e-02
1.514790e-02
2.009730e-02
1.794430e-02
1.660750e-02
1.608690e-02
1.638250e-02
1.258210e-02
8.387730e-03
6.352260e-03
6.475710e-03
8.758090e-03
1.324770e-02
8.878510e-03
6.081600e-03
4.856940e-03
5.204520e-03
1.410290e-02
9.455790e-03
6.045630e-03
3.872430e-03
2.936190e-03
1.514790e-02
1.011960e-02
6.244360e-03
3.522190e-03
1.953080e-03
1.638250e-02
1.086990e-02
6.677780e-03
3.806220e-03
2.255200e-03
8.758090e-03
-1.064730e-02
-2.742770e-02
-4.158320e-02
-5.311360e-02
5.204520e-03
-1.516160e-02
-3.169030e-02
-4.438140e-02
-5.323490e-02
2.936190e-03
-1.628980e-02
-3.121790e-02
-4.184800e-02
-4.818010e-02
1.953080e-03
-1.403190e-02
-2.601060e-02
-3.398290e-02
-3.794900e-02
2.255200e-03
-8.387830e-03
-1.606830e-02
-2.078630e-02
-2.254170e-02
-5.311360e-02
-4.475050e-02
-3.767250e-02
-3.187980e-02
-2.737220e-02
-5.323490e-02
-4.483120e-02
-3.688580e-02
-2.939890e-02
-2.237050e-02
-4.818010e-02
-4.062190e-02
-3.272920e-02
-2.450190e-02
-1.594010e-02
-3.794900e-02
-3.212270e-02
-2.520260e-02
-1.718880e-02
-8.081090e-03
-2.254170e-02
-1.933350e-02
-1.430610e-02
-7.459410e-03
1.206560e-03
-2.737220e-02
-2.386080e-02
-1.942550e-02
-1.406630e-02
-7.783180e-03
-2.237050e-02
-2.052940e-02
-1.726110e-02
-1.256540e-02
-6.442540e-03
-1.594010e-02
-1.525250e-02
-1.304370e-02
-9.313840e-03
-4.062880e-03
-8.081090e-03
-8.029900e-03
-6.773360e-03
-4.311460e-03
-6.442070e-04
1.206560e-03
1.138250e-03
1.549960e-03
2.441710e-03
3.813490e-03
-7.783180e-03
-1.771830e-03
3.119440e-03
6.890630e-03
9.541760e-03
-6.442540e-03
2.507130e-05
5.076360e-03
8.711340e-03
1.093000e-02
-4.062880e-03
2.439630e-03
7.351420e-03
1.067250e-02
1.240290e-02
-6.442070e-04
5.471830e-03
9.944620e-03
1.277420e-02
1.396040e-02
3.813490e-03
9.121690e-03
1.285590e-02
1.501630e-02
1.560260e-02
9.541760e-03
1.237410e-02
1.470530e-02
1.653530e-02
1.786420e-02
1.093000e-02
1.349320e-02
1.561500e-02
1.729520e-02
1.853390e-02
1.240290e-02
1.463020e-02
1.649170e-02
1.798730e-02
1.911720e-02
1.396040e-02
1.578490e-02
1.733530e-02
1.861170e-02
1.961400e-02
1.560260e-02
1.695740e-02
1.814600e-02
1.916830e-02
2.002440e-02
1.786420e-02
1.965650e-02
2.118470e-02
2.244900e-02
2.344930e-02
1.853390e-02
2.039700e-02
2.196350e-02
2.323320e-02
2.420640e-02
1.911720e-02
2.098390e-02
2.252640e-02
2.374480e-02
2.463910e-02
1.961400e-02
2.141700e-02
2.287360e-02
2.398370e-02
2.474740e-02
2.002440e-02
2.169660e-02
2.300510e-02
2.395000e-02
2.453130e-02
2.163650e-02
2.123030e-02
2.094540e-02
2.078190e-02
2.073970e-02
2.197900e-02
2.158640e-02
2.129160e-02
2.109480e-02
2.099570e-02
2.233590e-02
2.198060e-02
2.169780e-02
2.148760e-02
2.134980e-02
2.270730e-02
2.241300e-02
2.216400e-02
2.196040e-02
2.180200e-02
2.309330e-02
2.288360e-02
2.269020e-02
2.251310e-02
2.235240e-02
2.073970e-02
2.062230e-02
2.047610e-02
2.030110e-02
2.009730e-02
2.099570e-02
2.074680e-02
2.055860e-02
2.043110e-02
2.036440e-02
2.134980e-02
2.098860e-02
2.076040e-02
2.066550e-02
2.070360e-02
2.180200e-02
2.134770e-02
2.108170e-02
2.100420e-02
2.111510e-02
2.235240e-02
2.182410e-02
2.152240e-02
2.144730e-02
2.159870e-02
2.009730e-02
1.794430e-02
1.660750e-02
1.608690e-02
1.638250e-02
2.036440e-02
1.787520e-02
1.659400e-02
1.652080e-02
1.765560e-02
2.070360e-02
1.801000e-02
1.681000e-02
1.710370e-02
1.889090e-02
2.111510e-02
1.834880e-02
1.725560e-02
1.783550e-02
2.008860e-02
2.159870e-02
1.889150e-02
1.793070e-02
1.871640e-02
2.124860e-02
1.638250e-02
1.086990e-02
6.677780e-03
3.806220e-03
2.255200e-03
1.765560e-02
1.197720e-02
7.933540e-03
5.524450e-03
4.749980e-03
1.889090e-02
1.351950e-02
9.841450e-03
7.856650e-03
7.565130e-03
2.008860e-02
1.549670e-02
1.240150e-02
1.080280e-02
1.070070e-02
2.124860e-02
1.790890e-02
1.561370e-02
1.436290e-02
1.415660e-02
2.255200e-03
-8.387830e-03
-1.606830e-02
-2.078630e-02
-2.254170e-02
4.749980e-03
1.648950e-03
-6.581940e-04
-2.171450e-03
-2.890810e-03
7.565130e-03
1.072810e-02
1.291470e-02
1.412520e-02
1.435940e-02
1.070070e-02
1.884950e-02
2.465050e-02
2.810370e-02
2.920900e-02
1.415660e-02
2.601330e-02
3.454910e-02
3.976390e-02
4.165790e-02
-2.254170e-02
-1.933350e-02
-1.430610e-02
-7.459410e-03
1.206560e-03
-2.890810e-03
-4.805050e-03
-3.489320e-03
1.056360e-03
8.831990e-03
1.435940e-02
9.125790e-03
7.905200e-03
1.069760e-02
1.750310e-02
2.920900e-02
2.245900e-02
1.987750e-02
2.146440e-02
2.721980e-02
4.165790e-02
3.519450e-02
3.242750e-02
3.335670e-02
3.798230e-02
1.206560e-03
1.138250e-03
1.549960e-03
2.441710e-03
3.813490e-03
8.831990e-03
8.626640e-03
8.467170e-03
8.353590e-03
8.285890e-03
1.750310e-02
1.656410e-02
1.543660e-02
1.412060e-02
1.261610e-02
2.721980e-02
2.495070e-02
2.245840e-02
1.974280e-02
1.680410e-02
3.798230e-02
3.378640e-02
2.953240e-02
2.522020e-02
2.084990e-02
3.813490e-03
9.121690e-03
1.285590e-02
1.501630e-02
1.560260e-02
8.285890e-03
1.265750e-02
1.561850e-02
1.716900e-02
1.730910e-02
1.261610e-02
1.605950e-02
1.826830e-02
1.924250e-02
1.898220e-02
1.680410e-02
1.932780e-02
2.080540e-02
2.123680e-02
2.062200e-02
2.084990e-02
2.246240e-02
2.322970e-02
2.315180e-02
2.222860e-02
1.560260e-02
1.695740e-02
1.814600e-02
1.916830e-02
2.002440e-02
1.730910e-02
1.825230e-02
1.912840e-02
1.993720e-02
2.067880e-02
1.898220e-02
1.954000e-02
2.011710e-02
2.071350e-02
2.132910e-02
2.062200e-02
2.082040e-02
2.111210e-02
2.149710e-02
2.197540e-02
2.222860e-02
2.209350e-02
2.211330e-02
2.228800e-02
2.261750e-02
2.002440e-02
2.169660e-02
2.300510e-02
2.395000e-02
2.453130e-02
2.067880e-02
2.211620e-02
2.323680e-02
2.404050e-02
2.452750e-02
2.132910e-02
2.253370e-02
2.346990e-02
2.413760e-02
2.453700e-02
2.197540e-02
2.294920e-02
2.370450e-02
2.424130e-02
2.455970e-02
2.261750e-02
2.336250e-02
2.394050e-02
2.435150e-02
2.459560e-02
2.309330e-02
2.288360e-02
2.269020e-02
2.251310e-02
2.235240e-02
2.348320e-02
2.329980e-02
2.313920e-02
2.300140e-02
2.288640e-02
2.386930e-02
2.370650e-02
2.357410e-02
2.347210e-02
2.340060e-02
2.425160e-02
2.410370e-02
2.399490e-02
2.392530e-02
2.389480e-02
2.463000e-02
2.449140e-02
2.440170e-02
2.436090e-02
2.436910e-02
2.235240e-02
2.182410e-02
2.152240e-02
2.144730e-02
2.159870e-02
2.288640e-02
2.235540e-02
2.205530e-02
2.198600e-02
2.214760e-02
2.340060e-02
2.288920e-02
2.260500e-02
2.254790e-02
2.271800e-02
2.389480e-02
2.342540e-02
2.317140e-02
2.313300e-02
2.331020e-02
2.436910e-02
2.396400e-02
2.375480e-02
2.374140e-02
2.392390e-02
2.159870e-02
1.889150e-02
1.793070e-02
1.871640e-02
2.124860e-02
2.214760e-02
1.996280e-02
1.919180e-02
1.983470e-02
2.189130e-02
2.271800e-02
2.108460e-02
2.052510e-02
2.103930e-02
2.262740e-02
2.331020e-02
2.225700e-02
2.193040e-02
2.233030e-02
2.345660e-02
2.392390e-02
2.347990e-02
2.340780e-02
2.370760e-02
2.437920e-02
2.124860e-02
1.790890e-02
1.561370e-02
1.436290e-02
1.415660e-02
2.189130e-02
2.030800e-02
1.916420e-02
1.846000e-02
1.819540e-02
2.262740e-02
2.232050e-02
2.212310e-02
2.203530e-02
2.205700e-02
2.345660e-02
2.394640e-02
2.449050e-02
2.508890e-02
2.574160e-02
2.437920e-02
2.518580e-02
2.626640e-02
2.762080e-02
2.924910e-02
1.415660e-02
2.601330e-02
3.454910e-02
3.976390e-02
4.165790e-02
1.819540e-02
3.046120e-02
3.996900e-02
4.671860e-02
5.071020e-02
2.205700e-02
3.386860e-02
4.351270e-02
5.098920e-02
5.629820e-02
2.574160e-02
3.623560e-02
4.518030e-02
5.257570e-02
5.842190e-02
2.924910e-02
3.756200e-02
4.497170e-02
5.147810e-02
5.708140e-02
4.165790e-02
3.519450e-02
3.242750e-02
3.335670e-02
3.798230e-02
5.071020e-02
4.690800e-02
4.479870e-02
4.438230e-02
4.565870e-02
5.629820e-02
5.452900e-02
5.298280e-02
5.165940e-02
5.055900e-02
5.842190e-02
5.805770e-02
5.697980e-02
5.518830e-02
5.268310e-02
5.708140e-02
5.749390e-02
5.678980e-02
5.496880e-02
5.203110e-02
3.798230e-02
3.378640e-02
2.953240e-02
2.522020e-02
2.084990e-02
4.565870e-02
3.940930e-02
3.376210e-02
2.871690e-02
2.427390e-02
5.055900e-02
4.322910e-02
3.689890e-02
3.156830e-02
2.723730e-02
5.268310e-02
4.524580e-02
3.894290e-02
3.377430e-02
2.974010e-02
5.203110e-02
4.545940e-02
3.989400e-02
3.533500e-02
3.178240e-02
2.084990e-02
2.246240e-02
2.322970e-02
2.315180e-02
2.222860e-02
2.427390e-02
2.497380e-02
2.509040e-02
2.462370e-02
2.357350e-02
2.723730e-02
2.714800e-02
2.670740e-02
2.591540e-02
2.477190e-02
2.974010e-02
2.898500e-02
2.808060e-02
2.702690e-02
2.582380e-02
3.178240e-02
3.048480e-02
2.921010e-02
2.795820e-02
2.672920e-02
2.222860e-02
2.209350e-02
2.211330e-02
2.228800e-02
2.261750e-02
2.357350e-02
2.328100e-02
2.313070e-02
2.312270e-02
2.325690e-02
2.477190e-02
2.435620e-02
2.406660e-02
2.390310e-02
2.386560e-02
2.582380e-02
2.531930e-02
2.492110e-02
2.462920e-02
2.444360e-02
2.672920e-02
2.617010e-02
2.569400e-02
2.530090e-02
2.499080e-02
2.261750e-02
2.336250e-02
2.394050e-02
2.435150e-02
2.459560e-02
2.325690e-02
2.381530e-02
2.424180e-02
2.453670e-02
2.469970e-02
2.386560e-02
2.425140e-02
2.453750e-02
2.472420e-02
2.481130e-02
2.444360e-02
2.467070e-02
2.482760e-02
2.491410e-02
2.493040e-02
2.499080e-02
2.507340e-02
2.511200e-02
2.510650e-02
2.505700e-02
2.463000e-02
2.449140e-02
2.440170e-02
2.436090e-02
2.436910e-02
2.499690e-02
2.488490e-02
2.482050e-02
2.480360e-02
2.483430e-02
2.534870e-02
2.526690e-02
2.522930e-02
2.523590e-02
2.528680e-02
2.568540e-02
2.563720e-02
2.562800e-02
2.565780e-02
2.572660e-02
2.600690e-02
2.599590e-02
2.601660e-02
2.606920e-02
2.615360e-02
2.436910e-02
2.396400e-02
2.375480e-02
2.374140e-02
2.392390e-02
2.483430e-02
2.451210e-02
2.436220e-02
2.438460e-02
2.457940e-02
2.528680e-02
2.504410e-02
2.495150e-02
2.500900e-02
2.521660e-02
2.572660e-02
2.556010e-02
2.552280e-02
2.561450e-02
2.583530e-02
2.615360e-02
2.606010e-02
2.607590e-02
2.620120e-02
2.643570e-02
2.392390e-02
2.347990e-02
2.340780e-02
2.370760e-02
2.437920e-02
2.457940e-02
2.441660e-02
2.454400e-02
2.496170e-02
2.566960e-02
2.521660e-02
2.524920e-02
2.552420e-02
2.604160e-02
2.680140e-02
2.583530e-02
2.597770e-02
2.634840e-02
2.694730e-02
2.777460e-02
2.643570e-02
2.660220e-02
2.701650e-02
2.767880e-02
2.858910e-02
2.437920e-02
2.518580e-02
2.626640e-02
2.762080e-02
2.924910e-02
2.566960e-02
2.658980e-02
2.790340e-02
2.961030e-02
3.171060e-02
2.680140e-02
2.788420e-02
2.937070e-02
3.126070e-02
3.355430e-02
2.777460e-02
2.906910e-02
3.066830e-02
3.257190e-02
3.478020e-02
2.858910e-02
3.014450e-02
3.179620e-02
3.354410e-02
3.538830e-02
2.924910e-02
3.756200e-02
4.497170e-02
5.147810e-02
5.708140e-02
3.171060e-02
3.893300e-02
4.532740e-02
5.089370e-02
5.563200e-02
3.355430e-02
3.966100e-02
4.503990e-02
4.969090e-02
5.361410e-02
3.478020e-02
3.974610e-02
4.410930e-02
4.786990e-02
5.102770e-02
3.538830e-02
3.918820e-02
4.253560e-02
4.543050e-02
4.787290e-02
5.708140e-02
5.749390e-02
5.678980e-02
5.496880e-02
5.203110e-02
5.563200e-02
5.591840e-02
5.517860e-02
5.341260e-02
5.062030e-02
5.361410e-02
5.380080e-02
5.308890e-02
5.147820e-02
4.896880e-02
5.102770e-02
5.114130e-02
5.052060e-02
4.916570e-02
4.707660e-02
4.787290e-02
4.793980e-02
4.747390e-02
4.647510e-02
4.494360e-02
5.203110e-02
4.545940e-02
3.989400e-02
3.533500e-02
3.178240e-02
5.062030e-02
4.495040e-02
4.012240e-02
3.613630e-02
3.299200e-02
4.896880e-02
4.424540e-02
4.016870e-02
3.673880e-02
3.395560e-02
4.707660e-02
4.334420e-02
4.003290e-02
3.714260e-02
3.467320e-02
4.494360e-02
4.224700e-02
3.971500e-02
3.734760e-02
3.514480e-02
3.178240e-02
3.048480e-02
2.921010e-02
2.795820e-02
2.672920e-02
3.299200e-02
3.151080e-02
3.011170e-02
2.879470e-02
2.755990e-02
3.395560e-02
3.232420e-02
3.083130e-02
2.947690e-02
2.826090e-02
3.467320e-02
3.292520e-02
3.136900e-02
3.000470e-02
2.883220e-02
3.514480e-02
3.331370e-02
3.172480e-02
3.037820e-02
2.927390e-02
2.672920e-02
2.617010e-02
2.569400e-02
2.530090e-02
2.499080e-02
2.755990e-02
2.693220e-02
2.638230e-02
2.591010e-02
2.551560e-02
2.826090e-02
2.758250e-02
2.697700e-02
2.644440e-02
2.598470e-02
2.883220e-02
2.812090e-02
2.747810e-02
2.690370e-02
2.639790e-02
2.927390e-02
2.854740e-02
2.788550e-02
2.728820e-02
2.675530e-02
2.499080e-02
2.507340e-02
2.511200e-02
2.510650e-02
2.505700e-02
2.551560e-02
2.546460e-02
2.539540e-02
2.530800e-02
2.520260e-02
2.598470e-02
2.581930e-02
2.565790e-02
2.550030e-02
2.534670e-02
2.639790e-02
2.613770e-02
2.589960e-02
2.568350e-02
2.548940e-02
2.675530e-02
2.641970e-02
2.612030e-02
2.585740e-02
2.563070e-02
2.600690e-02
2.599590e-02
2.601660e-02
2.606920e-02
2.615360e-02
2.630990e-02
2.633370e-02
2.638360e-02
2.645960e-02
2.656170e-02
2.659390e-02
2.665030e-02
2.672730e-02
2.682500e-02
2.694330e-02
2.685910e-02
2.694570e-02
2.704780e-02
2.716540e-02
2.729850e-02
2.710540e-02
2.721990e-02
2.734510e-02
2.748080e-02
2.762720e-02
2.615360e-02
2.606010e-02
2.607590e-02
2.620120e-02
2.643570e-02
2.656170e-02
2.651470e-02
2.656900e-02
2.672450e-02
2.698110e-02
2.694330e-02
2.693540e-02
2.702130e-02
2.720090e-02
2.747420e-02
2.729850e-02
2.732210e-02
2.743280e-02
2.763040e-02
2.791510e-02
2.762720e-02
2.767480e-02
2.780350e-02
2.801310e-02
2.830370e-02
2.643570e-02
2.660220e-02
2.701650e-02
2.767880e-02
2.858910e-02
2.698110e-02
2.721730e-02
2.766650e-02
2.832880e-02
2.920420e-02
2.747420e-02
2.777460e-02
2.825060e-02
2.890230e-02
2.972970e-02
2.791510e-02
2.827400e-02
2.876870e-02
2.939920e-02
3.016550e-02
2.830370e-02
2.871560e-02
2.922080e-02
2.981960e-02
3.051180e-02
2.858910e-02
3.014450e-02
3.179620e-02
3.354410e-02
3.538830e-02
2.920420e-02
3.073720e-02
3.231760e-02
3.394540e-02
3.562060e-02
2.972970e-02
3.117710e-02
3.264580e-02
3.413580e-02
3.564720e-02
3.016550e-02
3.146420e-02
3.278080e-02
3.411550e-02
3.546810e-02
3.051180e-02
3.159850e-02
3.272270e-02
3.388430e-02
3.508340e-02
3.538830e-02
3.918820e-02
4.253560e-02
4.543050e-02
4.787290e-02
3.562060e-02
3.864540e-02
4.128420e-02
4.353710e-02
4.540410e-02
3.564720e-02
3.805480e-02
4.013350e-02
4.188340e-02
4.330450e-02
3.546810e-02
3.741640e-02
3.908350e-02
4.046930e-02
4.157400e-02
3.508340e-02
3.673040e-02
3.813420e-02
3.929490e-02
4.021250e-02
4.787290e-02
4.793980e-02
4.747390e-02
4.647510e-02
4.494360e-02
4.540410e-02
4.552190e-02
4.520940e-02
4.446670e-02
4.329380e-02
4.330450e-02
4.346910e-02
4.327990e-02
4.273680e-02
4.183990e-02
4.157400e-02
4.178140e-02
4.168520e-02
4.128540e-02
4.058190e-02
4.021250e-02
4.045890e-02
4.042550e-02
4.011250e-02
3.951980e-02
4.494360e-02
4.224700e-02
3.971500e-02
3.734760e-02
3.514480e-02
4.329380e-02
4.105250e-02
3.893180e-02
3.693170e-02
3.505240e-02
4.183990e-02
3.998720e-02
3.821810e-02
3.653240e-02
3.493030e-02
4.058190e-02
3.905140e-02
3.757400e-02
3.614970e-02
3.477860e-02
3.951980e-02
3.824480e-02
3.699940e-02
3.578360e-02
3.459740e-02
3.514480e-02
3.331370e-02
3.172480e-02
3.037820e-02
2.927390e-02
3.505240e-02
3.341050e-02
3.196430e-02
3.071360e-02
2.965860e-02
3.493030e-02
3.345600e-02
3.213820e-02
3.097680e-02
2.997200e-02
3.477860e-02
3.345010e-02
3.224650e-02
3.116780e-02
3.021390e-02
3.459740e-02
3.339290e-02
3.228930e-02
3.128650e-02
3.038450e-02
2.927390e-02
2.854740e-02
2.788550e-02
2.728820e-02
2.675530e-02
2.965860e-02
2.891390e-02
2.823550e-02
2.762360e-02
2.707810e-02
2.997200e-02
2.921620e-02
2.852870e-02
2.790950e-02
2.735860e-02
3.021390e-02
2.945430e-02
2.876490e-02
2.814560e-02
2.759660e-02
3.038450e-02
2.962830e-02
2.894420e-02
2.833220e-02
2.779230e-02
2.675530e-02
2.641970e-02
2.612030e-02
2.585740e-02
2.563070e-02
2.707810e-02
2.669350e-02
2.635090e-02
2.605020e-02
2.579150e-02
2.735860e-02
2.693570e-02
2.655870e-02
2.622750e-02
2.594220e-02
2.759660e-02
2.714610e-02
2.674370e-02
2.638930e-02
2.608300e-02
2.779230e-02
2.732480e-02
2.690590e-02
2.653550e-02
2.621360e-02
2.710540e-02
2.721990e-02
2.734510e-02
2.748080e-02
2.762720e-02
2.733260e-02
2.746380e-02
2.760450e-02
2.775470e-02
2.791440e-02
2.754220e-02
2.768750e-02
2.784110e-02
2.800290e-02
2.817300e-02
2.773410e-02
2.789110e-02
2.805490e-02
2.822540e-02
2.840270e-02
2.790840e-02
2.807460e-02