<?xml version="1.0"?>
<VTKFile type="UnstructuredGrid" version="0.1" byte_order="LittleEndian" compressor="vtkZLibDataCompressor">
<UnstructuredGrid>
<Piece NumberOfPoints="2500" NumberOfCells="1600">
<Points>
<DataArray type="Float32" NumberOfComponents="3" format="ascii">
-3.630000e+00 0.000000e+00 0.000000e+00
-3.448500e+00 0.000000e+00 0.000000e+00
-3.267000e+00 0.000000e+00 0.000000e+00
-3.085500e+00 0.000000e+00 0.000000e+00
-2.904000e+00 0.000000e+00 0.000000e+00
-3.630000e+00 1.282500e-01 0.000000e+00
-3.448500e+00 1.282500e-01 0.000000e+00
-3.267000e+00 1.282500e-01 0.000000e+00
-3.085500e+00 1.282500e-01 0.000000e+00
-2.904000e+00 1.282500e-01 0.000000e+00
-3.630000e+00 2.565000e-01 0.000000e+00
-3.448500e+00 2.565000e-01 0.000000e+00
-3.267000e+00 2.565000e-01 0.000000e+00
-3.085500e+00 2.565000e-01 0.000000e+00
-2.904000e+00 2.565000e-01 0.000000e+00
-3.630000e+00 3.847500e-01 0.000000e+00
-3.448500e+00 3.847500e-01 0.000000e+00
-3.267000e+00 3.847500e-01 0.000000e+00
-3.085500e+00 3.847500e-01 0.000000e+00
-2.904000e+00 3.847500e-01 0.000000e+00
-3.630000e+00 5.130000e-01 0.000000e+00
-3.448500e+00 5.130000e-01 0.000000e+00
-3.267000e+00 5.130000e-01 0.000000e+00
-3.085500e+00 5.130000e-01 0.000000e+00
-2.904000e+00 5.130000e-01 0.000000e+00
-2.904000e+00 0.000000e+00 0.000000e+00
-2.722500e+00 0.000000e+00 0.000000e+00
-2.541000e+00 0.000000e+00 0.000000e+00
-2.359500e+00 0.000000e+00 0.000000e+00
-2.178000e+00 0.000000e+00 0.000000e+00
-2.904000e+00 1.282500e-01 0.000000e+00
-2.722500e+00 1.282500e-01 0.000000e+00
-2.541000e+00 1.282500e-01 0.000000e+00
-2.359500e+00 1.282500e-01 0.000000e+00
-2.178000e+00 1.282500e-01 0.000000e+00
-2.904000e+00 2.565000e-01 0.000000e+00
-2.722500e+00 2.565000e-01 0.000000e+00
-2.541000e+00 2.565000e-01 0.000000e+00
-2.359500e+00 2.565000e-01 0.000000e+00
-2.178000e+00 2.565000e-01 0.000000e+00
-2.904000e+00 3.847500e-01 0.000000e+00
-2.722500e+00 3.847500e-01 0.000000e+00
-2.541000e+00 3.847500e-01 0.000000e+00
-2.359500e+00 3.847500e-01 0.000000e+00
-2.178000e+00 3.847500e-01 0.000000e+00
-2.904000e+00 5.130000e-01 0.000000e+00
-2.722500e+00 5.130000e-01 0.000000e+00
-2.541000e+00 5.130000e-01 0.000000e+00
-2.359500e+00 5.130000e-01 0.000000e+00
-2.178000e+00 5.130000e-01 0.000000e+00
-2.178000e+00 0.000000e+00 0.000000e+00
-1.996500e+00 0.000000e+00 0.000000e+00
-1.815000e+00 0.000000e+00 0.000000e+00
-1.633500e+00 0.000000e+00 0.000000e+00
-1.452000e+00 0.000000e+00 0.000000e+00
-2.178000e+00 1.282500e-01 0.000000e+00
-1.996500e+00 1.282500e-01 0.000000e+00
-1.815000e+00 1.282500e-01 0.000000e+00
-1.633500e+00 1.282500e-01 0.000000e+00
-1.452000e+00 1.282500e-01 0.000000e+00
-2.178000e+00 2.565000e-01 0.000000e+00
-1.996500e+00 2.565000e-01 0.000000e+00
-1.815000e+00 2.565000e-01 0.000000e+00
-1.633500e+00 2.565000e-01 0.000000e+00
-1.452000e+00 2.565000e-01 0.000000e+00
-2.178000e+00 3.847500e-01 0.000000e+00
-1.996500e+00 3.847500e-01 0.000000e+00
-1.815000e+00 3.847500e-01 0.000000e+00
-1.633500e+00 3.847500e-01 0.000000e+00
-1.452000e+00 3.847500e-01 0.000000e+00
-2.178000e+00 5.130000e-01 0.000000e+00
-1.996500e+00 5.130000e-01 0.000000e+00
-1.815000e+00 5.130000e-01 0.000000e+00
-1.633500e+00 5.130000e-01 0.000000e+00
-1.452000e+00 5.130000e-01 0.000000e+00
-1.452000e+00 0.000000e+00 0.000000e+00
-1.270500e+00 0.000000e+00 0.000000e+00
-1.089000e+00 0.000000e+00 0.000000e+00
-9.075000e-01 0.000000e+00 0.000000e+00
-7.260000e-01 0.000000e+00 0.000000e+00
-1.452000e+00 1.282500e-01 0.000000e+00
-1.270500e+00 1.282500e-01 0.000000e+00
-1.089000e+00 1.282500e-01 0.000000e+00
-9.075000e-01 1.282500e-01 0.000000e+00
-7.260000e-01 1.282500e-01 0.000000e+00
-1.452000e+00 2.565000e-01 0.000000e+00
-1.270500e+00 2.565000e-01 0.000000e+00
-1.089000e+00 2.565000e-01 0.000000e+00
-9.075000e-01 2.565000e-01 0.000000e+00
-7.260000e-01 2.565000e-01 0.000000e+00
-1.452000e+00 3.847500e-01 0.000000e+00
-1.270500e+00 3.847500e-01 0.000000e+00
-1.089000e+00 3.847500e-01 0.000000e+00
-9.075000e-01 3.847500e-01 0.000000e+00
-7.260000e-01 3.847500e-01 0.000000e+00
-1.452000e+00 5.130000e-01 0.000000e+00
-1.270500e+00 5.130000e-01 0.000000e+00
-1.089000e+00 5.130000e-01 0.000000e+00
-9.075000e-01 5.130000e-01 0.000000e+00
-7.260000e-01 5.130000e-01 0.000000e+00
-7.260000e-01 0.000000e+00 0.000000e+00
-5.445000e-01 0.000000e+00 0.000000e+00
-3.630000e-01 0.000000e+00 0.000000e+00
-1.815000e-01 0.000000e+00 0.000000e+00
0.000000e+00 0.000000e+00 0.000000e+00
-7.260000e-01 1.282500e-01 0.000000e+00
-5.445000e-01 1.282500e-01 0.000000e+00
-3.630000e-01 1.282500e-01 0.000000e+00
-1.815000e-01 1.282500e-01 0.000000e+00
0.000000e+00 1.282500e-01 0.000000e+00
-7.260000e-01 2.565000e-01 0.000000e+00
-5.445000e-01 2.565000e-01 0.000000e+00
-3.630000e-01 2.565000e-01 0.000000e+00
-1.815000e-01 2.565000e-01 0.000000e+00
0.000000e+00 2.565000e-01 0.000000e+00
-7.260000e-01 3.847500e-01 0.000000e+00
-5.445000e-01 3.847500e-01 0.000000e+00
-3.630000e-01 3.847500e-01 0.000000e+00
-1.815000e-01 3.847500e-01 0.000000e+00
0.000000e+00 3.847500e-01 0.000000e+00
-7.260000e-01 5.130000e-01 0.000000e+00
-5.445000e-01 5.130000e-01 0.000000e+00
-3.630000e-01 5.130000e-01 0.000000e+00
-1.815000e-01 5.130000e-01 0.000000e+00
0.000000e+00 5.130000e-01 0.000000e+00
0.000000e+00 0.000000e+00 0.000000e+00
1.815000e-01 0.000000e+00 0.000000e+00
3.630000e-01 0.000000e+00 0.000000e+00
5.445000e-01 0.000000e+00 0.000000e+00
7.260000e-01 0.000000e+00 0.000000e+00
0.000000e+00 1.282500e-01 0.000000e+00
1.815000e-01 1.282500e-01 0.000000e+00
3.630000e-01 1.282500e-01 0.000000e+00
5.445000e-01 1.282500e-01 0.000000e+00
7.260000e-01 1.282500e-01 0.000000e+00
0.000000e+00 2.565000e-01 0.000000e+00
1.815000e-01 2.565000e-01 0.000000e+00
3.630000e-01 2.565000e-01 0.000000e+00
5.445000e-01 2.565000e-01 0.000000e+00
7.260000e-01 2.565000e-01 0.000000e+00
0.000000e+00 3.847500e-01 0.000000e+00
1.815000e-01 3.847500e-01 0.000000e+00
3.630000e-01 3.847500e-01 0.000000e+00
5.445000e-01 3.847500e-01 0.000000e+00
7.260000e-01 3.847500e-01 0.000000e+00
0.000000e+00 5.130000e-01 0.000000e+00
1.815000e-01 5.130000e-01 0.000000e+00
3.630000e-01 5.130000e-01 0.000000e+00
5.445000e-01 5.130000e-01 0.000000e+00
7.260000e-01 5.130000e-01 0.000000e+00
7.260000e-01 0.000000e+00 0.000000e+00
9.075000e-01 0.000000e+00 0.000000e+00
1.089000e+00 0.000000e+00 0.000000e+00
1.270500e+00 0.000000e+00 0.000000e+00
1.452000e+00 0.000000e+00 0.000000e+00
7.260000e-01 1.282500e-01 0.000000e+00
9.075000e-01 1.282500e-01 0.000000e+00
1.089000e+00 1.282500e-01 0.000000e+00
1.270500e+00 1.282500e-01 0.000000e+00
1.452000e+00 1.282500e-01 0.000000e+00
7.260000e-01 2.565000e-01 0.000000e+00
9.075000e-01 2.565000e-01 0.000000e+00
1.089000e+00 2.565000e-01 0.000000e+00
1.270500e+00 2.565000e-01 0.000000e+00
1.452000e+00 2.565000e-01 0.000000e+00
7.260000e-01 3.847500e-01 0.000000e+00
9.075000e-01 3.847500e-01 0.000000e+00
1.089000e+00 3.847500e-01 0.000000e+00
1.270500e+00 3.847500e-01 0.000000e+00
1.452000e+00 3.847500e-01 0.000000e+00
7.260000e-01 5.130000e-01 0.000000e+00
9.075000e-01 5.130000e-01 0.000000e+00
1.089000e+00 5.130000e-01 0.000000e+00
1.270500e+00 5.130000e-01 0.000000e+00
1.452000e+00 5.130000e-01 0.000000e+00
1.452000e+00 0.000000e+00 0.000000e+00
1.633500e+00 0.000000e+00 0.000000e+00
1.815000e+00 0.000000e+00 0.000000e+00
1.996500e+00 0.000000e+00 0.000000e+00
2.178000e+00 0.000000e+00 0.000000e+00
1.452000e+00 1.282500e-01 0.000000e+00
1.633500e+00 1.282500e-01 0.000000e+00
1.815000e+00 1.282500e-01 0.000000e+00
1.996500e+00 1.282500e-01 0.000000e+00
2.178000e+00 1.282500e-01 0.000000e+00
1.452000e+00 2.565000e-01 0.000000e+00
1.633500e+00 2.565000e-01 0.000000e+00
1.815000e+00 2.565000e-01 0.000000e+00
1.996500e+00 2.565000e-01 0.000000e+00
2.178000e+00 2.565000e-01 0.000000e+00
1.452000e+00 3.847500e-01 0.000000e+00
1.633500e+00 3.847500e-01 0.000000e+00
1.815000e+00 3.847500e-01 0.000000e+00
1.996500e+00 3.847500e-01 0.000000e+00
2.178000e+00 3.847500e-01 0.000000e+00
1.452000e+00 5.130000e-01 0.000000e+00
1.633500e+00 5.130000e-01 0.000000e+00
1.815000e+00 5.130000e-01 0.000000e+00
1.996500e+00 5.130000e-01 0.000000e+00
2.178000e+00 5.130000e-01 0.000000e+00
2.178000e+00 0.000000e+00 0.000000e+00
2.359500e+00 0.000000e+00 0.000000e+00
2.541000e+00 0.000000e+00 0.000000e+00
2.722500e+00 0.000000e+00 0.000000e+00
2.904000e+00 0.000000e+00 0.000000e+00
2.178000e+00 1.282500e-01 0.000000e+00
2.359500e+00 1.282500e-01 0.000000e+00
2.541000e+00 1.282500e-01 0.000000e+00
2.722500e+00 1.282500e-01 0.000000e+00
2.904000e+00 1.282500e-01 0.000000e+00
2.178000e+00 2.565000e-01 0.000000e+00
2.359500e+00 2.565000e-01 0.000000e+00
2.541000e+00 2.565000e-01 0.000000e+00
2.722500e+00 2.565000e-01 0.000000e+00
2.904000e+00 2.565000e-01 0.000000e+00
2.178000e+00 3.847500e-01 0.000000e+00
2.359500e+00 3.847500e-01 0.000000e+00
2.541000e+00 3.847500e-01 0.000000e+00
2.722500e+00 3.847500e-01 0.000000e+00
2.904000e+00 3.847500e-01 0.000000e+00
2.178000e+00 5.130000e-01 0.000000e+00
2.359500e+00 5.130000e-01 0.000000e+00
2.541000e+00 5.130000e-01 0.000000e+00
2.722500e+00 5.130000e-01 0.000000e+00
2.904000e+00 5.130000e-01 0.000000e+00
2.904000e+00 0.000000e+00 0.000000e+00
3.085500e+00 0.000000e+00 0.000000e+00
3.267000e+00 0.000000e+00 0.000000e+00
3.448500e+00 0.000000e+00 0.000000e+00
3.630000e+00 0.000000e+00 0.000000e+00
2.904000e+00 1.282500e-01 0.000000e+00
3.085500e+00 1.282500e-01 0.000000e+00
3.267000e+00 1.282500e-01 0.000000e+00
3.448500e+00 1.282500e-01 0.000000e+00
3.630000e+00 1.282500e-01 0.000000e+00
2.904000e+00 2.565000e-01 0.000000e+00
3.085500e+00 2.565000e-01 0.000000e+00
3.267000e+00 2.565000e-01 0.000000e+00
3.448500e+00 2.565000e-01 0.000000e+00
3.630000e+00 2.565000e-01 0.000000e+00
2.904000e+00 3.847500e-01 0.000000e+00
3.085500e+00 3.847500e-01 0.000000e+00
3.267000e+00 3.847500e-01 0.000000e+00
3.448500e+00 3.847500e-01 0.000000e+00
3.630000e+00 3.847500e-01 0.000000e+00
2.904000e+00 5.130000e-01 0.000000e+00
[...]
<PointData>
<DataArray type="Float32" Name="V1" format="ascii">
0.000000e+00
0.000000e+00
0.000000e+00
0.000000e+00
0.000000e+00
1.264110e-02
1.100910e-02
9.661920e-03
8.599610e-03
7.822170e-03
2.028400e-02
1.819050e-02
1.640570e-02
1.492960e-02
1.376220e-02
2.292870e-02
2.154430e-02
2.023140e-02
1.899000e-02
1.782010e-02
2.057510e-02
2.107040e-02
2.113900e-02
2.078080e-02
1.999590e-02
0.000000e+00
0.000000e+00
0.000000e+00
0.000000e+00
0.000000e+00
7.822170e-03
6.803560e-03
6.109620e-03
5.740330e-03
5.695700e-03
1.376220e-02
1.220910e-02
1.108960e-02
1.040360e-02
1.015110e-02
1.782010e-02
1.621660e-02
1.493980e-02
1.398970e-02
1.336630e-02
1.999590e-02
1.882620e-02
1.766050e-02
1.649880e-02
1.534120e-02
0.000000e+00
0.000000e+00
0.000000e+00
0.000000e+00
0.000000e+00
5.695700e-03
5.765410e-03
5.809940e-03
5.829290e-03
5.823440e-03
1.015110e-02
1.010820e-02
9.970400e-03
9.737650e-03
9.409970e-03
1.336630e-02
1.302840e-02
1.248140e-02
1.172510e-02
1.075960e-02
1.534120e-02
1.452610e-02
1.334290e-02
1.179160e-02
9.872300e-03
0.000000e+00
0.000000e+00
0.000000e+00
0.000000e+00
0.000000e+00
5.823440e-03
4.351710e-03
3.945830e-03
4.605800e-03
6.331620e-03
9.409970e-03
6.736160e-03
5.512530e-03
5.739090e-03
7.415840e-03
1.075960e-02
7.153340e-03
4.700100e-03
3.399870e-03
3.252660e-03
9.872300e-03
5.603250e-03
1.508530e-03
-2.411860e-03
-6.157930e-03
0.000000e+00
0.000000e+00
0.000000e+00
0.000000e+00
0.000000e+00
6.331620e-03
-1.141690e-03
-1.046450e-02
-2.163670e-02
-3.465840e-02
7.415840e-03
-6.333260e-03
-2.163480e-02
-3.848880e-02
-5.689520e-02
3.252660e-03
-1.557470e-02
-3.351100e-02
-5.055620e-02
-6.671030e-02
-6.157930e-03
-2.886600e-02
-4.609300e-02
-5.783890e-02
-6.410370e-02
0.000000e+00
0.000000e+00
0.000000e+00
0.000000e+00
0.000000e+00
-3.465840e-02
-3.215420e-02
-2.925750e-02
-2.596850e-02
-2.228700e-02
-5.689520e-02
-5.215180e-02
-4.674750e-02
-4.068240e-02
-3.395650e-02
-6.671030e-02
-5.999280e-02
-5.247000e-02
-4.414190e-02
-3.500860e-02
-6.410370e-02
-5.567720e-02
-4.642500e-02
-3.634690e-02
-2.544310e-02
0.000000e+00
0.000000e+00
0.000000e+00
0.000000e+00
0.000000e+00
-2.228700e-02
-1.870870e-02
-1.486340e-02
-1.075100e-02
-6.371600e-03
-3.395650e-02
-2.858370e-02
-2.274490e-02
-1.643990e-02
-9.668960e-03
-3.500860e-02
-2.962500e-02
-2.364440e-02
-1.706670e-02
-9.892080e-03
-2.544310e-02
-2.183250e-02
-1.756190e-02
-1.263140e-02
-7.040970e-03
0.000000e+00
0.000000e+00
0.000000e+00
0.000000e+00
0.000000e+00
-6.371600e-03
-1.866970e-03
1.481460e-03
3.673680e-03
4.709710e-03
-9.668960e-03
-2.522400e-03
2.843480e-03
6.428700e-03
8.233260e-03
-9.892080e-03
-1.966310e-03
4.086070e-03
8.265060e-03
1.057070e-02
-7.040970e-03
-1.986870e-04
5.209220e-03
9.182750e-03
1.172190e-02
0.000000e+00
0.000000e+00
0.000000e+00
0.000000e+00
0.000000e+00
4.709710e-03
5.905140e-03
6.914210e-03
7.736920e-03
8.373270e-03
8.233260e-03
1.019480e-02
1.185020e-02
1.319930e-02
1.424230e-02
1.057070e-02
1.286900e-02
1.480780e-02
1.638720e-02
1.760720e-02
1.172190e-02
1.392770e-02
1.578730e-02
1.730060e-02
1.846780e-02
0.000000e+00
0.000000e+00
0.000000e+00
0.000000e+00
0.000000e+00
8.373270e-03
9.006380e-03
9.648590e-03
1.029990e-02
1.096030e-02
1.424230e-02
1.542890e-02
1.656050e-02
1.763700e-02
1.865850e-02
1.760720e-02
1.926750e-02
2.073560e-02
2.201130e-02
2.309470e-02
1.846780e-02
2.052230e-02
2.217400e-02
2.342280e-02
2.426880e-02
2.057510e-02
2.107040e-02
2.113900e-02
2.078080e-02
1.999590e-02
2.078850e-02
2.096810e-02
2.096880e-02
2.079060e-02
2.043360e-02
2.103660e-02
2.096010e-02
2.086950e-02
2.076490e-02
2.064610e-02
2.131930e-02
2.104640e-02
2.084120e-02
2.070360e-02
2.063350e-02
2.163650e-02
2.122710e-02
2.088380e-02
2.060670e-02
2.039580e-02
1.999590e-02
1.882620e-02
1.766050e-02
1.649880e-02
1.534120e-02
2.043360e-02
1.965700e-02
1.874430e-02
1.769520e-02
1.650990e-02
2.064610e-02
2.015160e-02
1.944630e-02
1.853020e-02
1.740320e-02
2.063350e-02
2.030990e-02
1.976660e-02
1.900370e-02
1.802100e-02
2.039580e-02
2.013190e-02
1.970520e-02
1.911570e-02
1.836340e-02
1.534120e-02
1.452610e-02
1.334290e-02
1.179160e-02
9.872300e-03
1.650990e-02
1.473180e-02
1.309870e-02
1.161080e-02
1.026800e-02
1.740320e-02
1.469970e-02
1.278530e-02
1.166010e-02
1.132410e-02
1.802100e-02
1.442990e-02
1.240280e-02
1.193980e-02
1.304090e-02
1.836340e-02
1.392220e-02
1.195100e-02
1.244960e-02
1.541810e-02
9.872300e-03
5.603250e-03
1.508530e-03
-2.411860e-03
-6.157930e-03
1.026800e-02
4.484340e-03
-1.313970e-03
-7.126970e-03
-1.295470e-02
1.132410e-02
4.085570e-03
-2.945930e-03
-9.770370e-03
-1.638770e-02
1.304090e-02
4.406960e-03
-3.387340e-03
-1.034210e-02
-1.645720e-02
1.541810e-02
5.448500e-03
-2.638220e-03
-8.842030e-03
-1.316290e-02
-6.157930e-03
-2.886600e-02
-4.609300e-02
-5.783890e-02
-6.410370e-02
-1.295470e-02
-3.241540e-02
-4.741650e-02
-5.795800e-02
-6.403990e-02
-1.638770e-02
-3.120750e-02
-4.269970e-02
-5.086430e-02
-5.570140e-02
-1.645720e-02
-2.524250e-02
-3.194270e-02
-3.655790e-02
-3.908800e-02
-1.316290e-02
-1.452030e-02
-1.514560e-02
-1.503880e-02
-1.420000e-02
-6.410370e-02
-5.567720e-02
-4.642500e-02
-3.634690e-02
-2.544310e-02
-6.403990e-02
-5.567600e-02
-4.576310e-02
-3.430130e-02
-2.129050e-02
-5.570140e-02
-4.832520e-02
-3.908450e-02
-2.797920e-02
-1.500930e-02
-3.908800e-02
-3.362490e-02
-2.638910e-02
-1.738060e-02
-6.599370e-03
-1.420000e-02
-1.157510e-02
-7.676970e-03
-2.505540e-03
3.939180e-03
-2.544310e-02
-2.183250e-02
-1.756190e-02
-1.263140e-02
-7.040970e-03
-2.129050e-02
-1.785340e-02
-1.410620e-02
-1.004890e-02
-5.681550e-03
-1.500930e-02
-1.188690e-02
-8.853830e-03
-5.910160e-03
-3.055860e-03
-6.599370e-03
-3.932850e-03
-1.804760e-03
-2.151130e-04
8.361010e-04
3.939180e-03
6.008640e-03
7.040990e-03
7.036220e-03
5.994330e-03
-7.040970e-03
-1.986870e-04
5.209220e-03
9.182750e-03
1.172190e-02
-5.681550e-03
1.614810e-03
7.178390e-03
1.100920e-02
1.310720e-02
-3.055860e-03
4.066120e-03
9.358870e-03
1.282240e-02
1.445670e-02
8.361010e-04
7.155230e-03
1.175070e-02
1.462240e-02
1.577040e-02
5.994330e-03
1.088220e-02
1.435380e-02
1.640920e-02
1.704840e-02
1.172190e-02
1.392770e-02
1.578730e-02
1.730060e-02
1.846780e-02
1.310720e-02
1.499950e-02
1.659790e-02
1.790250e-02
1.891330e-02
1.445670e-02
1.604920e-02
1.739360e-02
1.849000e-02
1.933840e-02
1.577040e-02
1.707690e-02
1.817450e-02
1.906320e-02
1.974300e-02
1.704840e-02
1.808270e-02
1.894060e-02
1.962210e-02
2.012720e-02
1.846780e-02
2.052230e-02
2.217400e-02
2.342280e-02
2.426880e-02
1.891330e-02
2.107010e-02
2.276780e-02
2.400660e-02
2.478620e-02
1.933840e-02
2.151880e-02
2.319550e-02
2.436850e-02
2.503790e-02
1.974300e-02
2.186830e-02
2.345690e-02
2.450870e-02
2.502380e-02
2.012720e-02
2.211870e-02
2.355210e-02
2.442710e-02
2.474400e-02
2.163650e-02
2.122710e-02
2.088380e-02
2.060670e-02
2.039580e-02
2.197900e-02
2.157070e-02
2.122310e-02
2.093630e-02
2.071020e-02
2.233590e-02
2.195300e-02
2.162420e-02
2.134950e-02
2.112890e-02
2.270730e-02
2.237410e-02
2.208710e-02
2.184640e-02
2.165190e-02
2.309330e-02
2.283400e-02
2.261180e-02
2.242690e-02
2.227920e-02
2.039580e-02
2.013190e-02
1.970520e-02
1.911570e-02
1.836340e-02
2.071020e-02
2.027290e-02
1.984640e-02
1.943060e-02
1.902550e-02
2.112890e-02
2.053800e-02
2.010940e-02
1.984330e-02
1.973960e-02
2.165190e-02
2.092700e-02
2.049440e-02
2.035390e-02
2.050560e-02
2.227920e-02
2.144010e-02
2.100110e-02
2.096230e-02
2.132360e-02
1.836340e-02
1.392220e-02
1.195100e-02
1.244960e-02
1.541810e-02
1.902550e-02
1.421940e-02
1.239040e-02
1.353870e-02
1.766410e-02
1.973960e-02
1.494740e-02
1.331790e-02
1.485110e-02
1.954690e-02
2.050560e-02
1.610650e-02
1.473360e-02
1.638690e-02
2.106640e-02
2.132360e-02
1.769660e-02
1.663740e-02
1.814620e-02
2.222280e-02
1.541810e-02
5.448500e-03
-2.638220e-03
-8.842030e-03
-1.316290e-02
1.766410e-02
7.778260e-03
4.247980e-04
-4.396310e-03
-6.685050e-03
1.954690e-02
1.094620e-02
4.802410e-03
1.115430e-03
-1.147270e-04
2.106640e-02
1.495240e-02
1.049460e-02
7.693160e-03
6.548030e-03
2.222280e-02
1.979670e-02
1.750140e-02
1.533690e-02
1.330320e-02
-1.316290e-02
-1.452030e-02
-1.514560e-02
-1.503880e-02
-1.420000e-02
-6.685050e-03
-1.513430e-04
5.644320e-03
1.070200e-02
1.502150e-02
-1.147270e-04
1.194540e-02
2.220650e-02
3.066850e-02
3.733160e-02
6.548030e-03
2.176980e-02
3.454080e-02
4.486100e-02
5.273030e-02
1.330320e-02
2.932200e-02
4.264740e-02
5.327920e-02
6.121760e-02
-1.420000e-02
-1.157510e-02
-7.676970e-03
-2.505540e-03
3.939180e-03
1.502150e-02
1.061400e-02
8.697290e-03
9.271370e-03
1.233630e-02
3.733160e-02
2.881320e-02
2.323580e-02
2.059960e-02
2.090450e-02
5.273030e-02
4.302230e-02
3.593860e-02
3.147910e-02
2.964380e-02
6.121760e-02
5.324160e-02
4.680570e-02
4.190990e-02
3.855430e-02
3.939180e-03
6.008640e-03
7.040990e-03
7.036220e-03
5.994330e-03
1.233630e-02
1.361250e-02
1.384580e-02
1.303610e-02
1.118330e-02
2.090450e-02
2.099470e-02
2.018840e-02
1.848560e-02
1.588620e-02
2.964380e-02
2.815510e-02
2.606870e-02
2.338470e-02
2.010300e-02
3.855430e-02
3.509380e-02
3.148680e-02
2.773340e-02
2.383370e-02
5.994330e-03
1.088220e-02
1.435380e-02
1.640920e-02
1.704840e-02
1.118330e-02
1.430890e-02
1.650860e-02
1.778230e-02
1.813000e-02
1.588620e-02
1.750590e-02
1.860820e-02
1.919300e-02
1.926040e-02
2.010300e-02
2.047300e-02
2.065240e-02
2.064120e-02
2.043930e-02
2.383370e-02
2.321030e-02
2.264140e-02
2.212700e-02
2.166690e-02
1.704840e-02
1.808270e-02
1.894060e-02
1.962210e-02
2.012720e-02
1.813000e-02
1.914390e-02
1.993870e-02
2.051430e-02
2.087080e-02
1.926040e-02
2.020130e-02
2.090250e-02
2.136420e-02
2.158620e-02
2.043930e-02
2.125460e-02
2.183200e-02
2.217160e-02
2.227330e-02
2.166690e-02
2.230400e-02
2.272720e-02
2.293660e-02
2.293210e-02
2.012720e-02
2.211870e-02
2.355210e-02
2.442710e-02
2.474400e-02
2.087080e-02
2.247740e-02
2.365680e-02
2.440900e-02
2.473400e-02
2.158620e-02
2.283160e-02
2.377210e-02
2.440780e-02
2.473870e-02
2.227330e-02
2.318120e-02
2.389800e-02
2.442360e-02
2.475800e-02
2.293210e-02
2.352630e-02
2.403440e-02
2.445620e-02
2.479200e-02
2.309330e-02
2.283400e-02
2.261180e-02
2.242690e-02
2.227920e-02
2.348320e-02
2.325160e-02
2.307150e-02
2.294290e-02
2.286590e-02
2.386930e-02
2.366210e-02
2.351930e-02
2.344100e-02
2.342720e-02
2.425160e-02
2.406540e-02
2.395530e-02
2.392120e-02
2.396330e-02
2.463000e-02
2.446150e-02
2.437940e-02
2.438350e-02
2.447400e-02
2.227920e-02
2.144010e-02
2.100110e-02
2.096230e-02
2.132360e-02
2.286590e-02
2.207710e-02
2.168020e-02
2.167510e-02
2.206180e-02
2.342720e-02
2.271840e-02
2.238240e-02
2.241910e-02
2.282860e-02
2.396330e-02
2.336400e-02
2.310770e-02
2.319440e-02
2.362400e-02
2.447400e-02
2.401380e-02
2.385610e-02
2.400090e-02
2.444810e-02
2.132360e-02
1.769660e-02
1.663740e-02
1.814620e-02
2.222280e-02
2.206180e-02
1.961770e-02
1.898490e-02
2.016350e-02
2.315330e-02
2.282860e-02
2.137720e-02
2.113330e-02
2.209660e-02
2.426730e-02
2.362400e-02
2.297520e-02
2.308240e-02
2.394550e-02
2.556470e-02
2.444810e-02
2.441160e-02
2.483230e-02
2.571030e-02
2.704550e-02
2.222280e-02
1.979670e-02
1.750140e-02
1.533690e-02
1.330320e-02
2.315330e-02
2.376530e-02
2.390580e-02
2.357490e-02
2.277270e-02
2.426730e-02
2.680060e-02
2.864520e-02
2.980110e-02
3.026830e-02
2.556470e-02
2.890270e-02
3.171960e-02
3.401540e-02
3.579010e-02
2.704550e-02
3.007150e-02
3.312890e-02
3.621780e-02
3.933810e-02
1.330320e-02
2.932200e-02
4.264740e-02
5.327920e-02
6.121760e-02
2.277270e-02
3.641880e-02
4.806240e-02
5.770360e-02
6.534230e-02
3.026830e-02
4.165240e-02
5.153300e-02
5.991000e-02
6.678340e-02
3.579010e-02
4.502290e-02
5.305900e-02
5.989840e-02
6.554100e-02
3.933810e-02
4.653030e-02
5.264060e-02
5.766880e-02
6.161500e-02
6.121760e-02
5.324160e-02
4.680570e-02
4.190990e-02
3.855430e-02
6.534230e-02
5.887120e-02
5.293870e-02
4.754480e-02
4.268950e-02
6.678340e-02
6.157730e-02
5.628990e-02
5.092130e-02
4.547150e-02
6.554100e-02
6.135990e-02
5.685950e-02
5.203960e-02
4.690020e-02
6.161500e-02
5.821910e-02
5.464730e-02
5.089950e-02
4.697580e-02
3.855430e-02
3.509380e-02
3.148680e-02
2.773340e-02
2.383370e-02
4.268950e-02
3.811850e-02
3.384790e-02
2.987770e-02
2.620800e-02
4.547150e-02
4.034390e-02
3.576700e-02
3.174080e-02
2.826530e-02
4.690020e-02
4.177000e-02
3.724410e-02
3.332270e-02
3.000580e-02
4.697580e-02
4.239670e-02
3.827930e-02
3.462350e-02
3.142930e-02
2.383370e-02
2.321030e-02
2.264140e-02
2.212700e-02
2.166690e-02
2.620800e-02
2.530070e-02
2.447130e-02
2.371980e-02
2.304610e-02
2.826530e-02
2.710560e-02
2.605700e-02
2.511930e-02
2.429260e-02
3.000580e-02
2.862510e-02
2.739840e-02
2.632550e-02
2.540650e-02
3.142930e-02
2.985920e-02
2.849550e-02
2.733830e-02
2.638760e-02
2.166690e-02
2.230400e-02
2.272720e-02
2.293660e-02
2.293210e-02
2.304610e-02
2.334540e-02
2.350720e-02
2.353160e-02
2.341860e-02
2.429260e-02
2.429840e-02
2.423210e-02
2.409380e-02
2.388330e-02
2.540650e-02
2.516320e-02
2.490200e-02
2.462300e-02
2.432620e-02
2.638760e-02
2.593960e-02
2.551690e-02
2.511940e-02
2.474710e-02
2.293210e-02
2.352630e-02
2.403440e-02
2.445620e-02
2.479200e-02
2.341860e-02
2.392580e-02
2.433040e-02
2.463260e-02
2.483220e-02
2.388330e-02
2.431010e-02
2.461850e-02
2.480830e-02
2.487960e-02
2.432620e-02
2.467940e-02
2.489850e-02
2.498340e-02
2.493420e-02
2.474710e-02
2.503350e-02
2.517040e-02
2.515790e-02
2.499600e-02
2.463000e-02
2.446150e-02
2.437940e-02
2.438350e-02
2.447400e-02
2.499690e-02
2.486390e-02
2.481440e-02
2.484860e-02
2.496630e-02
2.534870e-02
2.525390e-02
2.523730e-02
2.529900e-02
2.543900e-02
2.568540e-02
2.563160e-02
2.564810e-02
2.573490e-02
2.589200e-02
2.600690e-02
2.599690e-02
2.604670e-02
2.615620e-02
2.632540e-02
2.447400e-02
2.401380e-02
2.385610e-02
2.400090e-02
2.444810e-02
2.496630e-02
2.464180e-02
2.458060e-02
2.478280e-02
2.524840e-02
2.543900e-02
2.523540e-02
2.525750e-02
2.550530e-02
2.597880e-02
2.589200e-02
2.579460e-02
2.588670e-02
2.616820e-02
2.663920e-02
2.632540e-02
2.631940e-02
2.646820e-02
2.677160e-02
2.722970e-02
2.444810e-02
2.441160e-02
2.483230e-02
2.571030e-02
2.704550e-02
2.524840e-02
2.548560e-02
2.607590e-02
2.701950e-02
2.831620e-02
2.597880e-02
2.642080e-02
2.713240e-02
2.811350e-02
2.936410e-02
2.663920e-02
2.721730e-02
2.800170e-02
2.899230e-02
3.018930e-02
2.722970e-02
2.787510e-02
2.868390e-02
2.965610e-02
3.079170e-02
2.704550e-02
3.007150e-02
3.312890e-02
3.621780e-02
3.933810e-02
2.831620e-02
3.111430e-02
3.396260e-02
3.686110e-02
3.980980e-02
2.936410e-02
3.194290e-02
3.456020e-02
3.721610e-02
3.991050e-02
3.018930e-02
3.255730e-02
3.492180e-02
3.728270e-02
3.964010e-02
3.079170e-02
3.295760e-02
3.504740e-02
3.706110e-02
3.899870e-02
3.933810e-02
4.653030e-02
5.264060e-02
5.766880e-02
6.161500e-02
3.980980e-02
4.583230e-02
5.082630e-02
5.479180e-02
5.772880e-02
3.991050e-02
4.481380e-02
4.880060e-02
5.187060e-02
5.402400e-02
3.964010e-02
4.347510e-02
4.656350e-02
4.890530e-02
5.050040e-02
3.899870e-02
4.181600e-02
4.411510e-02
4.589580e-02
4.715820e-02
6.161500e-02
5.821910e-02
5.464730e-02
5.089950e-02
4.697580e-02
5.772880e-02
5.496430e-02
5.204590e-02
4.897350e-02
4.574710e-02
5.402400e-02
5.189400e-02
4.960910e-02
4.716930e-02
4.457440e-02
5.050040e-02
4.900820e-02
4.733700e-02
4.548690e-02
4.345770e-02
4.715820e-02
4.630680e-02
4.522950e-02
4.392630e-02
4.239710e-02
4.697580e-02
4.239670e-02
3.827930e-02
3.462350e-02
3.142930e-02
4.574710e-02
4.172490e-02
3.812440e-02
3.494570e-02
3.218880e-02
4.457440e-02
4.109840e-02
3.798390e-02
3.523100e-02
3.283970e-02
4.345770e-02
4.051740e-02
3.785790e-02
3.547940e-02
3.338180e-02
4.239710e-02
3.998170e-02
3.774630e-02
3.569080e-02
3.381520e-02
3.142930e-02
2.985920e-02
2.849550e-02
2.733830e-02
2.638760e-02
3.218880e-02
3.067450e-02
2.933370e-02
2.816640e-02
2.717270e-02
3.283970e-02
3.135280e-02
3.002170e-02
2.884650e-02
2.782710e-02
3.338180e-02
3.189400e-02
3.055960e-02
2.937850e-02
2.835070e-02
3.381520e-02
3.229820e-02
3.094730e-02
2.976240e-02
2.874360e-02
2.638760e-02
2.593960e-02
2.551690e-02
2.511940e-02
2.474710e-02
2.717270e-02
2.662710e-02
2.612530e-02
2.566730e-02
2.525290e-02
2.782710e-02
2.721010e-02
2.665140e-02
2.615100e-02
2.570900e-02
2.835070e-02
2.768840e-02
2.709500e-02
2.657060e-02
2.611530e-02
2.874360e-02
2.806200e-02
2.745620e-02
2.692610e-02
2.647180e-02
2.474710e-02
2.503350e-02
2.517040e-02
2.515790e-02
2.499600e-02
2.525290e-02
2.536920e-02
2.538530e-02
2.530120e-02
2.511690e-02
2.570900e-02
2.567340e-02
2.558330e-02
2.543890e-02
2.524000e-02
2.611530e-02
2.594590e-02
2.576440e-02
2.557090e-02
2.536530e-02
2.647180e-02
2.618680e-02
2.592860e-02
2.569730e-02
2.549280e-02
2.600690e-02
2.599690e-02
2.604670e-02
2.615620e-02
2.632540e-02
2.630990e-02
2.633690e-02
2.641620e-02
2.654770e-02
2.673140e-02
2.659390e-02
2.665500e-02
2.676100e-02
2.691200e-02
2.710800e-02
2.685910e-02
2.695100e-02
2.708100e-02
2.724900e-02
2.745520e-02
2.710540e-02
2.722510e-02
2.737620e-02
2.755890e-02
2.777310e-02
2.632540e-02
2.631940e-02
2.646820e-02
2.677160e-02
2.722970e-02
2.673140e-02
2.678200e-02
2.696900e-02
2.729240e-02
2.775230e-02
2.710800e-02
2.720610e-02
2.742370e-02
2.776090e-02
2.821760e-02
2.745520e-02
2.759180e-02
2.783240e-02
2.817700e-02
2.862560e-02
2.777310e-02
2.793910e-02
2.819500e-02
2.854070e-02
2.897620e-02
2.722970e-02
2.787510e-02
2.868390e-02
2.965610e-02
3.079170e-02
2.775230e-02
2.842600e-02
2.923520e-02
3.018010e-02
3.126060e-02
2.821760e-02
2.890160e-02
2.969530e-02
3.059850e-02
3.161130e-02
2.862560e-02
2.930210e-02
3.006400e-02
3.091120e-02
3.184380e-02
2.897620e-02
2.962730e-02
3.034130e-02
3.111830e-02
3.195820e-02
3.079170e-02
3.295760e-02
3.504740e-02
3.706110e-02
3.899870e-02
3.126060e-02
3.317600e-02
3.501170e-02
3.676760e-02
3.844380e-02
3.161130e-02
3.329530e-02
3.489860e-02
3.642120e-02
3.786300e-02
3.184380e-02
3.331560e-02
3.470830e-02
3.602190e-02
3.725640e-02
3.195820e-02
3.323680e-02
3.444060e-02
3.556960e-02
3.662390e-02
3.899870e-02
4.181600e-02
4.411510e-02
4.589580e-02
4.715820e-02
3.844380e-02
4.075780e-02
4.262750e-02
4.405310e-02
4.503450e-02
3.786300e-02
3.975130e-02
4.126330e-02
4.239900e-02
4.315840e-02
3.725640e-02
3.879670e-02
4.002240e-02
4.093350e-02
4.152990e-02
3.662390e-02
3.789400e-02
3.890490e-02
3.965660e-02
4.014900e-02
4.715820e-02
4.630680e-02
4.522950e-02
4.392630e-02
4.239710e-02
4.503450e-02
4.435080e-02
4.346780e-02
4.238560e-02
4.110410e-02
4.315840e-02
4.262520e-02
4.191590e-02
4.103030e-02
3.996850e-02
4.152990e-02
4.113030e-02
4.057370e-02
3.986040e-02
3.899020e-02
4.014900e-02
3.986580e-02
3.944140e-02
3.887580e-02
3.816910e-02
4.239710e-02
3.998170e-02
3.774630e-02
3.569080e-02
3.381520e-02
4.110410e-02
3.904410e-02
3.713590e-02
3.537960e-02
3.377510e-02
3.996850e-02
3.822820e-02
3.660720e-02
3.510550e-02
3.372300e-02
3.899020e-02
3.753420e-02
3.616030e-02
3.486860e-02
3.365900e-02
3.816910e-02
3.696190e-02
3.579510e-02
3.466880e-02
3.358290e-02
3.381520e-02
3.229820e-02
3.094730e-02
2.976240e-02
2.874360e-02
3.377510e-02
3.240300e-02
3.116400e-02
3.005790e-02
2.908490e-02
3.372300e-02
3.247010e-02
3.132640e-02
3.029200e-02
2.936680e-02
3.365900e-02
3.249940e-02
3.143460e-02
3.046460e-02
2.958940e-02
3.358290e-02
3.249100e-02
3.148860e-02
3.057580e-02
2.975250e-02
2.874360e-02
2.806200e-02
2.745620e-02
2.692610e-02
2.647180e-02
2.908490e-02
2.839860e-02
2.778430e-02
2.724210e-02
2.677180e-02
2.936680e-02
2.868100e-02
2.806300e-02
2.751290e-02
2.703060e-02
2.958940e-02
2.890910e-02
2.829220e-02
2.773860e-02
2.724830e-02
2.975250e-02
2.908300e-02
2.847190e-02
2.791920e-02
2.742490e-02
2.647180e-02
2.618680e-02
2.592860e-02
2.569730e-02
2.549280e-02
2.677180e-02
2.643450e-02
2.613150e-02
2.586260e-02
2.562790e-02
2.703060e-02
2.665270e-02
2.631410e-02
2.601480e-02
2.575490e-02
2.724830e-02
2.684120e-02
2.647640e-02
2.615390e-02
2.587380e-02
2.742490e-02
2.700000e-02
2.661840e-02
2.627990e-02
2.598460e-02
2.710540e-02
2.722510e-02
2.737620e-02
2.755890e-02
2.777310e-02
2.733260e-02
2.747040e-02
2.763590e-02
2.782940e-02
2.805060e-02
2.754220e-02
2.769550e-02
2.787290e-02
2.807450e-02
2.830030e-02
2.773410e-02
2.790040e-02
2.808720e-02
2.829440e-02
2.852200e-02