<?xml version="1.0"?>
<VTKFile type="UnstructuredGrid" version="0.1" byte_order="LittleEndian" compressor="vtkZLibDataCompressor">
<UnstructuredGrid>
<Piece NumberOfPoints="2500" NumberOfCells="1600">
<Points>
<DataArray type="Float32" NumberOfComponents="3" format="ascii">
-3.630000e+00 0.000000e+00 0.000000e+00
-3.448500e+00 0.000000e+00 0.000000e+00
-3.267000e+00 0.000000e+00 0.000000e+00
-3.085500e+00 0.000000e+00 0.000000e+00
-2.904000e+00 0.000000e+00 0.000000e+00
-3.630000e+00 1.282500e-01 0.000000e+00
-3.448500e+00 1.282500e-01 0.000000e+00
-3.267000e+00 1.282500e-01 0.000000e+00
-3.085500e+00 1.282500e-01 0.000000e+00
-2.904000e+00 1.282500e-01 0.000000e+00
-3.630000e+00 2.565000e-01 0.000000e+00
-3.448500e+00 2.565000e-01 0.000000e+00
-3.267000e+00 2.565000e-01 0.000000e+00
-3.085500e+00 2.565000e-01 0.000000e+00
-2.904000e+00 2.565000e-01 0.000000e+00
-3.630000e+00 3.847500e-01 0.000000e+00
-3.448500e+00 3.847500e-01 0.000000e+00
-3.267000e+00 3.847500e-01 0.000000e+00
-3.085500e+00 3.847500e-01 0.000000e+00
-2.904000e+00 3.847500e-01 0.000000e+00
-3.630000e+00 5.130000e-01 0.000000e+00
-3.448500e+00 5.130000e-01 0.000000e+00
-3.267000e+00 5.130000e-01 0.000000e+00
-3.085500e+00 5.130000e-01 0.000000e+00
-2.904000e+00 5.130000e-01 0.000000e+00
-2.904000e+00 0.000000e+00 0.000000e+00
-2.722500e+00 0.000000e+00 0.000000e+00
-2.541000e+00 0.000000e+00 0.000000e+00
-2.359500e+00 0.000000e+00 0.000000e+00
-2.178000e+00 0.000000e+00 0.000000e+00
-2.904000e+00 1.282500e-01 0.000000e+00
-2.722500e+00 1.282500e-01 0.000000e+00
-2.541000e+00 1.282500e-01 0.000000e+00
-2.359500e+00 1.282500e-01 0.000000e+00
-2.178000e+00 1.282500e-01 0.000000e+00
-2.904000e+00 2.565000e-01 0.000000e+00
-2.722500e+00 2.565000e-01 0.000000e+00
-2.541000e+00 2.565000e-01 0.000000e+00
-2.359500e+00 2.565000e-01 0.000000e+00
-2.178000e+00 2.565000e-01 0.000000e+00
-2.904000e+00 3.847500e-01 0.000000e+00
-2.722500e+00 3.847500e-01 0.000000e+00
-2.541000e+00 3.847500e-01 0.000000e+00
-2.359500e+00 3.847500e-01 0.000000e+00
-2.178000e+00 3.847500e-01 0.000000e+00
-2.904000e+00 5.130000e-01 0.000000e+00
-2.722500e+00 5.130000e-01 0.000000e+00
-2.541000e+00 5.130000e-01 0.000000e+00
-2.359500e+00 5.130000e-01 0.000000e+00
-2.178000e+00 5.130000e-01 0.000000e+00
-2.178000e+00 0.000000e+00 0.000000e+00
-1.996500e+00 0.000000e+00 0.000000e+00
-1.815000e+00 0.000000e+00 0.000000e+00
-1.633500e+00 0.000000e+00 0.000000e+00
-1.452000e+00 0.000000e+00 0.000000e+00
-2.178000e+00 1.282500e-01 0.000000e+00
-1.996500e+00 1.282500e-01 0.000000e+00
-1.815000e+00 1.282500e-01 0.000000e+00
-1.633500e+00 1.282500e-01 0.000000e+00
-1.452000e+00 1.282500e-01 0.000000e+00
-2.178000e+00 2.565000e-01 0.000000e+00
-1.996500e+00 2.565000e-01 0.000000e+00
-1.815000e+00 2.565000e-01 0.000000e+00
-1.633500e+00 2.565000e-01 0.000000e+00
-1.452000e+00 2.565000e-01 0.000000e+00
-2.178000e+00 3.847500e-01 0.000000e+00
-1.996500e+00 3.847500e-01 0.000000e+00
-1.815000e+00 3.847500e-01 0.000000e+00
-1.633500e+00 3.847500e-01 0.000000e+00
-1.452000e+00 3.847500e-01 0.000000e+00
-2.178000e+00 5.130000e-01 0.000000e+00
-1.996500e+00 5.130000e-01 0.000000e+00
-1.815000e+00 5.130000e-01 0.000000e+00
-1.633500e+00 5.130000e-01 0.000000e+00
-1.452000e+00 5.130000e-01 0.000000e+00
-1.452000e+00 0.000000e+00 0.000000e+00
-1.270500e+00 0.000000e+00 0.000000e+00
-1.089000e+00 0.000000e+00 0.000000e+00
-9.075000e-01 0.000000e+00 0.000000e+00
-7.260000e-01 0.000000e+00 0.000000e+00
-1.452000e+00 1.282500e-01 0.000000e+00
-1.270500e+00 1.282500e-01 0.000000e+00
-1.089000e+00 1.282500e-01 0.000000e+00
-9.075000e-01 1.282500e-01 0.000000e+00
-7.260000e-01 1.282500e-01 0.000000e+00
-1.452000e+00 2.565000e-01 0.000000e+00
-1.270500e+00 2.565000e-01 0.000000e+00
-1.089000e+00 2.565000e-01 0.000000e+00
-9.075000e-01 2.565000e-01 0.000000e+00
-7.260000e-01 2.565000e-01 0.000000e+00
-1.452000e+00 3.847500e-01 0.000000e+00
-1.270500e+00 3.847500e-01 0.000000e+00
-1.089000e+00 3.847500e-01 0.000000e+00
-9.075000e-01 3.847500e-01 0.000000e+00
-7.260000e-01 3.847500e-01 0.000000e+00
-1.452000e+00 5.130000e-01 0.000000e+00
-1.270500e+00 5.130000e-01 0.000000e+00
-1.089000e+00 5.130000e-01 0.000000e+00
-9.075000e-01 5.130000e-01 0.000000e+00
-7.260000e-01 5.130000e-01 0.000000e+00
-7.260000e-01 0.000000e+00 0.000000e+00
-5.445000e-01 0.000000e+00 0.000000e+00
-3.630000e-01 0.000000e+00 0.000000e+00
-1.815000e-01 0.000000e+00 0.000000e+00
0.000000e+00 0.000000e+00 0.000000e+00
-7.260000e-01 1.282500e-01 0.000000e+00
-5.445000e-01 1.282500e-01 0.000000e+00
-3.630000e-01 1.282500e-01 0.000000e+00
-1.815000e-01 1.282500e-01 0.000000e+00
0.000000e+00 1.282500e-01 0.000000e+00
-7.260000e-01 2.565000e-01 0.000000e+00
-5.445000e-01 2.565000e-01 0.000000e+00
-3.630000e-01 2.565000e-01 0.000000e+00
-1.815000e-01 2.565000e-01 0.000000e+00
0.000000e+00 2.565000e-01 0.000000e+00
-7.260000e-01 3.847500e-01 0.000000e+00
-5.445000e-01 3.847500e-01 0.000000e+00
-3.630000e-01 3.847500e-01 0.000000e+00
-1.815000e-01 3.847500e-01 0.000000e+00
0.000000e+00 3.847500e-01 0.000000e+00
-7.260000e-01 5.130000e-01 0.000000e+00
-5.445000e-01 5.130000e-01 0.000000e+00
-3.630000e-01 5.130000e-01 0.000000e+00
-1.815000e-01 5.130000e-01 0.000000e+00
0.000000e+00 5.130000e-01 0.000000e+00
0.000000e+00 0.000000e+00 0.000000e+00
1.815000e-01 0.000000e+00 0.000000e+00
3.630000e-01 0.000000e+00 0.000000e+00
5.445000e-01 0.000000e+00 0.000000e+00
7.260000e-01 0.000000e+00 0.000000e+00
0.000000e+00 1.282500e-01 0.000000e+00
1.815000e-01 1.282500e-01 0.000000e+00
3.630000e-01 1.282500e-01 0.000000e+00
5.445000e-01 1.282500e-01 0.000000e+00
7.260000e-01 1.282500e-01 0.000000e+00
0.000000e+00 2.565000e-01 0.000000e+00
1.815000e-01 2.565000e-01 0.000000e+00
3.630000e-01 2.565000e-01 0.000000e+00
5.445000e-01 2.565000e-01 0.000000e+00
7.260000e-01 2.565000e-01 0.000000e+00
0.000000e+00 3.847500e-01 0.000000e+00
1.815000e-01 3.847500e-01 0.000000e+00
3.630000e-01 3.847500e-01 0.000000e+00
5.445000e-01 3.847500e-01 0.000000e+00
7.260000e-01 3.847500e-01 0.000000e+00
0.000000e+00 5.130000e-01 0.000000e+00
1.815000e-01 5.130000e-01 0.000000e+00
3.630000e-01 5.130000e-01 0.000000e+00
5.445000e-01 5.130000e-01 0.000000e+00
7.260000e-01 5.130000e-01 0.000000e+00
7.260000e-01 0.000000e+00 0.000000e+00
9.075000e-01 0.000000e+00 0.000000e+00
1.089000e+00 0.000000e+00 0.000000e+00
1.270500e+00 0.000000e+00 0.000000e+00
1.452000e+00 0.000000e+00 0.000000e+00
7.260000e-01 1.282500e-01 0.000000e+00
9.075000e-01 1.282500e-01 0.000000e+00
1.089000e+00 1.282500e-01 0.000000e+00
1.270500e+00 1.282500e-01 0.000000e+00
1.452000e+00 1.282500e-01 0.000000e+00
7.260000e-01 2.565000e-01 0.000000e+00
9.075000e-01 2.565000e-01 0.000000e+00
1.089000e+00 2.565000e-01 0.000000e+00
1.270500e+00 2.565000e-01 0.000000e+00
1.452000e+00 2.565000e-01 0.000000e+00
7.260000e-01 3.847500e-01 0.000000e+00
9.075000e-01 3.847500e-01 0.000000e+00
1.089000e+00 3.847500e-01 0.000000e+00
1.270500e+00 3.847500e-01 0.000000e+00
1.452000e+00 3.847500e-01 0.000000e+00
7.260000e-01 5.130000e-01 0.000000e+00
9.075000e-01 5.130000e-01 0.000000e+00
1.089000e+00 5.130000e-01 0.000000e+00
1.270500e+00 5.130000e-01 0.000000e+00
1.452000e+00 5.130000e-01 0.000000e+00
1.452000e+00 0.000000e+00 0.000000e+00
1.633500e+00 0.000000e+00 0.000000e+00
1.815000e+00 0.000000e+00 0.000000e+00
1.996500e+00 0.000000e+00 0.000000e+00
2.178000e+00 0.000000e+00 0.000000e+00
1.452000e+00 1.282500e-01 0.000000e+00
1.633500e+00 1.282500e-01 0.000000e+00
1.815000e+00 1.282500e-01 0.000000e+00
1.996500e+00 1.282500e-01 0.000000e+00
2.178000e+00 1.282500e-01 0.000000e+00
1.452000e+00 2.565000e-01 0.000000e+00
1.633500e+00 2.565000e-01 0.000000e+00
1.815000e+00 2.565000e-01 0.000000e+00
1.996500e+00 2.565000e-01 0.000000e+00
2.178000e+00 2.565000e-01 0.000000e+00
1.452000e+00 3.847500e-01 0.000000e+00
1.633500e+00 3.847500e-01 0.000000e+00
1.815000e+00 3.847500e-01 0.000000e+00
1.996500e+00 3.847500e-01 0.000000e+00
2.178000e+00 3.847500e-01 0.000000e+00
1.452000e+00 5.130000e-01 0.000000e+00
1.633500e+00 5.130000e-01 0.000000e+00
1.815000e+00 5.130000e-01 0.000000e+00
1.996500e+00 5.130000e-01 0.000000e+00
2.178000e+00 5.130000e-01 0.000000e+00
2.178000e+00 0.000000e+00 0.000000e+00
2.359500e+00 0.000000e+00 0.000000e+00
2.541000e+00 0.000000e+00 0.000000e+00
2.722500e+00 0.000000e+00 0.000000e+00
2.904000e+00 0.000000e+00 0.000000e+00
2.178000e+00 1.282500e-01 0.000000e+00
2.359500e+00 1.282500e-01 0.000000e+00
2.541000e+00 1.282500e-01 0.000000e+00
2.722500e+00 1.282500e-01 0.000000e+00
2.904000e+00 1.282500e-01 0.000000e+00
2.178000e+00 2.565000e-01 0.000000e+00
2.359500e+00 2.565000e-01 0.000000e+00
2.541000e+00 2.565000e-01 0.000000e+00
2.722500e+00 2.565000e-01 0.000000e+00
2.904000e+00 2.565000e-01 0.000000e+00
2.178000e+00 3.847500e-01 0.000000e+00
2.359500e+00 3.847500e-01 0.000000e+00
2.541000e+00 3.847500e-01 0.000000e+00
2.722500e+00 3.847500e-01 0.000000e+00
2.904000e+00 3.847500e-01 0.000000e+00
2.178000e+00 5.130000e-01 0.000000e+00
2.359500e+00 5.130000e-01 0.000000e+00
2.541000e+00 5.130000e-01 0.000000e+00
2.722500e+00 5.130000e-01 0.000000e+00
2.904000e+00 5.130000e-01 0.000000e+00
2.904000e+00 0.000000e+00 0.000000e+00
3.085500e+00 0.000000e+00 0.000000e+00
3.267000e+00 0.000000e+00 0.000000e+00
3.448500e+00 0.000000e+00 0.000000e+00
3.630000e+00 0.000000e+00 0.000000e+00
2.904000e+00 1.282500e-01 0.000000e+00
3.085500e+00 1.282500e-01 0.000000e+00
3.267000e+00 1.282500e-01 0.000000e+00
3.448500e+00 1.282500e-01 0.000000e+00
3.630000e+00 1.282500e-01 0.000000e+00
2.904000e+00 2.565000e-01 0.000000e+00
3.085500e+00 2.565000e-01 0.000000e+00
3.267000e+00 2.565000e-01 0.000000e+00
3.448500e+00 2.565000e-01 0.000000e+00
3.630000e+00 2.565000e-01 0.000000e+00
2.904000e+00 3.847500e-01 0.000000e+00
3.085500e+00 3.847500e-01 0.000000e+00
3.267000e+00 3.847500e-01 0.000000e+00
3.448500e+00 3.847500e-01 0.000000e+00
3.630000e+00 3.847500e-01 0.000000e+00
2.904000e+00 5.130000e-01 0.000000e+00
[...]
<PointData>
<DataArray type="Float32" Name="V1" format="ascii">
0.000000e+00
0.000000e+00
0.000000e+00
0.000000e+00
0.000000e+00
1.264110e-02
1.102880e-02
9.680420e-03
8.595990e-03
7.775510e-03
2.028400e-02
1.821840e-02
1.643460e-02
1.493290e-02
1.371300e-02
2.292870e-02
2.156870e-02
2.026270e-02
1.901060e-02
1.781260e-02
2.057510e-02
2.107980e-02
2.116450e-02
2.082930e-02
2.007410e-02
0.000000e+00
0.000000e+00
0.000000e+00
0.000000e+00
0.000000e+00
7.775510e-03
6.785180e-03
6.103300e-03
5.729870e-03
5.664890e-03
1.371300e-02
1.221340e-02
1.112900e-02
1.046000e-02
1.020620e-02
1.781260e-02
1.628460e-02
1.507720e-02
1.419040e-02
1.362400e-02
2.007410e-02
1.899890e-02
1.794790e-02
1.692100e-02
1.591830e-02
0.000000e+00
0.000000e+00
0.000000e+00
0.000000e+00
0.000000e+00
5.664890e-03
5.749410e-03
5.775510e-03
5.743200e-03
5.652480e-03
1.020620e-02
1.023020e-02
1.010990e-02
9.845290e-03
9.436470e-03
1.362400e-02
1.344230e-02
1.300300e-02
1.230630e-02
1.135200e-02
1.591830e-02
1.538580e-02
1.445500e-02
1.312610e-02
1.139900e-02
0.000000e+00
0.000000e+00
0.000000e+00
0.000000e+00
0.000000e+00
5.652480e-03
4.061950e-03
3.796750e-03
4.856890e-03
7.242350e-03
9.436470e-03
6.640030e-03
5.796500e-03
6.905860e-03
9.968110e-03
1.135200e-02
7.734260e-03
5.999240e-03
6.146910e-03
8.177280e-03
1.139900e-02
7.344620e-03
4.404980e-03
2.580060e-03
1.869850e-03
0.000000e+00
0.000000e+00
0.000000e+00
0.000000e+00
0.000000e+00
7.242350e-03
1.297250e-03
-6.929070e-03
-1.743660e-02
-3.022530e-02
9.968110e-03
-1.632520e-03
-1.552990e-02
-3.172390e-02
-5.021470e-02
8.177280e-03
-8.789300e-03
-2.580240e-02
-4.286190e-02
-5.996800e-02
1.869850e-03
-2.017310e-02
-3.774660e-02
-5.085060e-02
-5.948520e-02
0.000000e+00
0.000000e+00
0.000000e+00
0.000000e+00
0.000000e+00
-3.022530e-02
-2.825980e-02
-2.612850e-02
-2.383130e-02
-2.136820e-02
-5.021470e-02
-4.616870e-02
-4.192160e-02
-3.747330e-02
-3.282390e-02
-5.996800e-02
-5.372670e-02
-4.737950e-02
-4.092620e-02
-3.436700e-02
-5.948520e-02
-5.093380e-02
-4.250200e-02
-3.419000e-02
-2.599760e-02
0.000000e+00
0.000000e+00
0.000000e+00
0.000000e+00
0.000000e+00
-2.136820e-02
-1.831370e-02
-1.480510e-02
-1.084240e-02
-6.425510e-03
-3.282390e-02
-2.816440e-02
-2.276790e-02
-1.663450e-02
-9.764170e-03
-3.436700e-02
-2.955190e-02
-2.388840e-02
-1.737640e-02
-1.001600e-02
-2.599760e-02
-2.247630e-02
-1.816650e-02
-1.306800e-02
-7.180990e-03
0.000000e+00
0.000000e+00
0.000000e+00
0.000000e+00
0.000000e+00
-6.425510e-03
-2.252630e-03
9.101390e-04
3.062790e-03
4.205330e-03
-9.764170e-03
-3.126340e-03
1.949340e-03
5.462860e-03
7.414240e-03
-1.001600e-02
-2.621150e-03
3.117590e-03
7.200210e-03
9.626700e-03
-7.180990e-03
-7.370400e-04
4.414900e-03
8.274830e-03
1.084270e-02
0.000000e+00
0.000000e+00
0.000000e+00
0.000000e+00
0.000000e+00
4.205330e-03
5.529420e-03
6.616770e-03
7.467370e-03
8.081220e-03
7.414240e-03
9.593790e-03
1.138770e-02
1.279580e-02
1.381830e-02
9.626700e-03
1.219310e-02
1.431270e-02
1.598540e-02
1.721130e-02
1.084270e-02
1.332730e-02
1.539180e-02
1.703610e-02
1.826020e-02
0.000000e+00
0.000000e+00
0.000000e+00
0.000000e+00
0.000000e+00
8.081220e-03
8.687710e-03
9.308270e-03
9.942890e-03
1.059160e-02
1.381830e-02
1.494820e-02
1.604020e-02
1.709440e-02
1.811070e-02
1.721130e-02
1.878150e-02
2.019590e-02
2.145460e-02
2.255740e-02
1.826020e-02
2.018770e-02
2.177540e-02
2.302330e-02
2.393160e-02
2.057510e-02
2.107980e-02
2.116450e-02
2.082930e-02
2.007410e-02
2.078850e-02
2.097260e-02
2.099890e-02
2.086740e-02
2.057810e-02
2.103660e-02
2.096200e-02
2.090360e-02
2.086120e-02
2.083500e-02
2.131930e-02
2.104800e-02
2.087860e-02
2.081090e-02
2.084490e-02
2.163650e-02
2.123070e-02
2.092390e-02
2.071630e-02
2.060780e-02
2.007410e-02
1.899890e-02
1.794790e-02
1.692100e-02
1.591830e-02
2.057810e-02
1.989430e-02
1.912180e-02
1.826040e-02
1.731010e-02
2.083500e-02
2.042280e-02
1.987000e-02
1.917690e-02
1.834320e-02
2.084490e-02
2.058420e-02
2.019270e-02
1.967050e-02
1.901750e-02
2.060780e-02
2.037860e-02
2.008980e-02
1.974130e-02
1.933310e-02
1.591830e-02
1.538580e-02
1.445500e-02
1.312610e-02
1.139900e-02
1.731010e-02
1.604430e-02
1.471150e-02
1.331160e-02
1.184470e-02
1.834320e-02
1.636640e-02
1.477150e-02
1.355860e-02
1.272770e-02
1.901750e-02
1.635190e-02
1.463500e-02
1.386700e-02
1.404780e-02
1.933310e-02
1.600080e-02
1.430210e-02
1.423680e-02
1.580510e-02
1.139900e-02
7.344620e-03
4.404980e-03
2.580060e-03
1.869850e-03
1.184470e-02
7.154900e-03
3.014910e-03
-5.752370e-04
-3.615550e-03
1.272770e-02
7.301020e-03
2.222710e-03
-2.507240e-03
-6.888860e-03
1.404780e-02
7.782970e-03
2.028390e-03
-3.215960e-03
-7.950080e-03
1.580510e-02
8.600770e-03
2.431930e-03
-2.701400e-03
-6.799220e-03
1.869850e-03
-2.017310e-02
-3.774660e-02
-5.085060e-02
-5.948520e-02
-3.615550e-03
-2.452880e-02
-4.081690e-02
-5.247970e-02
-5.951720e-02
-6.888860e-03
-2.471290e-02
-3.828160e-02
-4.759490e-02
-5.265280e-02
-7.950080e-03
-2.072540e-02
-3.014080e-02
-3.619640e-02
-3.889210e-02
-6.799220e-03
-1.256620e-02
-1.639440e-02
-1.828400e-02
-1.823500e-02
-5.948520e-02
-5.093380e-02
-4.250200e-02
-3.419000e-02
-2.599760e-02
-5.951720e-02
-5.122090e-02
-4.209660e-02
-3.214440e-02
-2.136420e-02
-5.265280e-02
-4.546070e-02
-3.678750e-02
-2.663330e-02
-1.499800e-02
-3.889210e-02
-3.365320e-02
-2.657470e-02
-1.765650e-02
-6.898780e-03
-1.823500e-02
-1.579840e-02
-1.145810e-02
-5.214210e-03
2.933370e-03
-2.599760e-02
-2.247630e-02
-1.816650e-02
-1.306800e-02
-7.180990e-03
-2.136420e-02
-1.876180e-02
-1.530160e-02
-1.098360e-02
-5.807680e-03
-1.499800e-02
-1.309600e-02
-1.050930e-02
-7.238140e-03
-3.282350e-03
-6.898780e-03
-5.478650e-03
-3.789640e-03
-1.831760e-03
3.950140e-04
2.933370e-03
4.090080e-03
4.857490e-03
5.235600e-03
5.224400e-03
-7.180990e-03
-7.370400e-04
4.414900e-03
8.274830e-03
1.084270e-02
-5.807680e-03
1.089870e-03
6.394980e-03
1.010770e-02
1.222790e-02
-3.282350e-03
3.534280e-03
8.622150e-03
1.198130e-02
1.361160e-02
3.950140e-04
6.596200e-03
1.109640e-02
1.389570e-02
1.499400e-02
5.224400e-03
1.027560e-02
1.381780e-02
1.585090e-02
1.637490e-02
1.084270e-02
1.332730e-02
1.539180e-02
1.703610e-02
1.826020e-02
1.222790e-02
1.442580e-02
1.625880e-02
1.772710e-02
1.883050e-02
1.361160e-02
1.550630e-02
1.709400e-02
1.837500e-02
1.934900e-02
1.499400e-02
1.656880e-02
1.789730e-02
1.897970e-02
1.981580e-02
1.637490e-02
1.761330e-02
1.866880e-02
1.954130e-02
2.023080e-02
1.826020e-02
2.018770e-02
2.177540e-02
2.302330e-02
2.393160e-02
1.883050e-02
2.083290e-02
2.245800e-02
2.370560e-02
2.457590e-02
1.934900e-02
2.135050e-02
2.294620e-02
2.413600e-02
2.491990e-02
1.981580e-02
2.174050e-02
2.324000e-02
2.431430e-02
2.496350e-02
2.023080e-02
2.200280e-02
2.333940e-02
2.424070e-02
2.470670e-02
2.163650e-02
2.123070e-02
2.092390e-02
2.071630e-02
2.060780e-02
2.197900e-02
2.158280e-02
2.126560e-02
2.102720e-02
2.086770e-02
2.233590e-02
2.197200e-02
2.166730e-02
2.142170e-02
2.123520e-02
2.270730e-02
2.239830e-02
2.212920e-02
2.189980e-02
2.171030e-02
2.309330e-02
2.286170e-02
2.265110e-02
2.246150e-02
2.229290e-02
2.060780e-02
2.037860e-02
2.008980e-02
1.974130e-02
1.933310e-02
2.086770e-02
2.050860e-02
2.019570e-02
1.992900e-02
1.970860e-02
2.123520e-02
2.075890e-02
2.042300e-02
2.022740e-02
2.017220e-02
2.171030e-02
2.112980e-02
2.077180e-02
2.063650e-02
2.072370e-02
2.229290e-02
2.162100e-02
2.124210e-02
2.115620e-02
2.136330e-02
1.933310e-02
1.600080e-02
1.430210e-02
1.423680e-02
1.580510e-02
1.970860e-02
1.602870e-02
1.442200e-02
1.488860e-02
1.742840e-02
2.017220e-02
1.636450e-02
1.488990e-02
1.574820e-02
1.893960e-02
2.072370e-02
1.700840e-02
1.570580e-02
1.681580e-02
2.033850e-02
2.136330e-02
1.796030e-02
1.686970e-02
1.809140e-02
2.162530e-02
1.580510e-02
8.600770e-03
2.431930e-03
-2.701400e-03
-6.799220e-03
1.742840e-02
9.877590e-03
4.072590e-03
1.344890e-05
-2.299830e-03
1.893960e-02
1.186440e-02
6.731050e-03
3.539610e-03
2.290050e-03
2.033850e-02
1.456110e-02
1.040730e-02
7.877070e-03
6.970410e-03
2.162530e-02
1.796790e-02
1.510140e-02
1.302580e-02
1.174130e-02
-6.799220e-03
-1.256620e-02
-1.639440e-02
-1.828400e-02
-1.823500e-02
-2.299830e-03
-2.048130e-05
2.274560e-03
4.585290e-03
6.911700e-03
2.290050e-03
1.071670e-02
1.768400e-02
2.319190e-02
2.724050e-02
6.970410e-03
1.964540e-02
2.983390e-02
3.753590e-02
4.275130e-02
1.174130e-02
2.676570e-02
3.872430e-02
4.761720e-02
5.344430e-02
-1.823500e-02
-1.579840e-02
-1.145810e-02
-5.214210e-03
2.933370e-03
6.911700e-03
3.169570e-03
2.614180e-03
5.245550e-03
1.106370e-02
2.724050e-02
1.978820e-02
1.604820e-02
1.602050e-02
1.970510e-02
4.275130e-02
3.405750e-02
2.884400e-02
2.711060e-02
2.885750e-02
5.344430e-02
4.597760e-02
4.100150e-02
3.851590e-02
3.852100e-02
2.933370e-03
4.090080e-03
4.857490e-03
5.235600e-03
5.224400e-03
1.106370e-02
1.169000e-02
1.174400e-02
1.122570e-02
1.013500e-02
1.970510e-02
1.930590e-02
1.833790e-02
1.680110e-02
1.469560e-02
2.885750e-02
2.693770e-02
2.463920e-02
2.196190e-02
1.890590e-02
3.852100e-02
3.458550e-02
3.064780e-02
2.670810e-02
2.276620e-02
5.224400e-03
1.027560e-02
1.381780e-02
1.585090e-02
1.637490e-02
1.013500e-02
1.374940e-02
1.620820e-02
1.751140e-02
1.765900e-02
1.469560e-02
1.703230e-02
1.852520e-02
1.917440e-02
1.897980e-02
1.890590e-02
2.012420e-02
2.076880e-02
2.083990e-02
2.033740e-02
2.276620e-02
2.302510e-02
2.293900e-02
2.250790e-02
2.173180e-02
1.637490e-02
1.761330e-02
1.866880e-02
1.954130e-02
2.023080e-02
1.765900e-02
1.873590e-02
1.964460e-02
2.038530e-02
2.095780e-02
1.897980e-02
1.986560e-02
2.060670e-02
2.120320e-02
2.165500e-02
2.033740e-02
2.100250e-02
2.155500e-02
2.199500e-02
2.232240e-02
2.173180e-02
2.214660e-02
2.248950e-02
2.276070e-02
2.296010e-02
2.023080e-02
2.200280e-02
2.333940e-02
2.424070e-02
2.470670e-02
2.095780e-02
2.238910e-02
2.348840e-02
2.425550e-02
2.469060e-02
2.165500e-02
2.276700e-02
2.364380e-02
2.428530e-02
2.469160e-02
2.232240e-02
2.313650e-02
2.380580e-02
2.433010e-02
2.470960e-02
2.296010e-02
2.349760e-02
2.397420e-02
2.438980e-02
2.474460e-02
2.309330e-02
2.286170e-02
2.265110e-02
2.246150e-02
2.229290e-02
2.348320e-02
2.327620e-02
2.310220e-02
2.296110e-02
2.285290e-02
2.386930e-02
2.368310e-02
2.354110e-02
2.344360e-02
2.339040e-02
2.425160e-02
2.408210e-02
2.396790e-02
2.390900e-02
2.390530e-02
2.463000e-02
2.447350e-02
2.438260e-02
2.435740e-02
2.439780e-02
2.229290e-02
2.162100e-02
2.124210e-02
2.115620e-02
2.136330e-02
2.285290e-02
2.219540e-02
2.183600e-02
2.177480e-02
2.201170e-02
2.339040e-02
2.277410e-02
2.245100e-02
2.242120e-02
2.268460e-02
2.390530e-02
2.335710e-02
2.308710e-02
2.309550e-02
2.338210e-02
2.439780e-02
2.394440e-02
2.374430e-02
2.379760e-02
2.410410e-02
2.136330e-02
1.796030e-02
1.686970e-02
1.809140e-02
2.162530e-02
2.201170e-02
1.948110e-02
1.869360e-02
1.964930e-02
2.234810e-02
2.268460e-02
2.096870e-02
2.048930e-02
2.124650e-02
2.324020e-02
2.338210e-02
2.242310e-02
2.225670e-02
2.288300e-02
2.430190e-02
2.410410e-02
2.384430e-02
2.399580e-02
2.455870e-02
2.553300e-02
2.162530e-02
1.796790e-02
1.510140e-02
1.302580e-02
1.174130e-02
2.234810e-02
2.147220e-02
2.054860e-02
1.957720e-02
1.855800e-02
2.324020e-02
2.425570e-02
2.483160e-02
2.496790e-02
2.466460e-02
2.430190e-02
2.631850e-02
2.795050e-02
2.919810e-02
3.006110e-02
2.553300e-02
2.766040e-02
2.990530e-02
3.226760e-02
3.474750e-02
1.174130e-02
2.676570e-02
3.872430e-02
4.761720e-02
5.344430e-02
1.855800e-02
3.233150e-02
4.370710e-02
5.268480e-02
5.926450e-02
2.466460e-02
3.683410e-02
4.717470e-02
5.568630e-02
6.236900e-02
3.006110e-02
4.027350e-02
4.912710e-02
5.662180e-02
6.275770e-02
3.474750e-02
4.264980e-02
4.956440e-02
5.549130e-02
6.043050e-02
5.344430e-02
4.597760e-02
4.100150e-02
3.851590e-02
3.852100e-02
5.926450e-02
5.407420e-02
4.979520e-02
4.642760e-02
4.397150e-02
6.236900e-02
5.884890e-02
5.519030e-02
5.139330e-02
4.745770e-02
6.275770e-02
6.030190e-02
5.718690e-02
5.341280e-02
4.897960e-02
6.043050e-02
5.843300e-02
5.578490e-02
5.248640e-02
4.853740e-02
3.852100e-02
3.458550e-02
3.064780e-02
2.670810e-02
2.276620e-02
4.397150e-02
3.859340e-02
3.373650e-02
2.940100e-02
2.558670e-02
4.745770e-02
4.139000e-02
3.612780e-02
3.167090e-02
2.801940e-02
4.897960e-02
4.297550e-02
3.782160e-02
3.351790e-02
3.006430e-02
4.853740e-02
4.334990e-02
3.881810e-02
3.494190e-02
3.172150e-02
2.276620e-02
2.302510e-02
2.293900e-02
2.250790e-02
2.173180e-02
2.558670e-02
2.526490e-02
2.474600e-02
2.402990e-02
2.311660e-02
2.801940e-02
2.719250e-02
2.630670e-02
2.536210e-02
2.435860e-02
3.006430e-02
2.880790e-02
2.762130e-02
2.650460e-02
2.545770e-02
3.172150e-02
3.011100e-02
2.868960e-02
2.745730e-02
2.641400e-02
2.173180e-02
2.214660e-02
2.248950e-02
2.276070e-02
2.296010e-02
2.311660e-02
2.326130e-02
2.336910e-02
2.344000e-02
2.347400e-02
2.435860e-02
2.427580e-02
2.418270e-02
2.407930e-02
2.396550e-02
2.545770e-02
2.519010e-02
2.493030e-02
2.467840e-02
2.443440e-02
2.641400e-02
2.600410e-02
2.561190e-02
2.523750e-02
2.488090e-02
2.296010e-02
2.349760e-02
2.397420e-02
2.438980e-02
2.474460e-02
2.347400e-02
2.391120e-02
2.427880e-02
2.457690e-02
2.480550e-02
2.396550e-02
2.431010e-02
2.457630e-02
2.476390e-02
2.487310e-02
2.443440e-02
2.469430e-02
2.486640e-02
2.495090e-02
2.494760e-02
2.488090e-02
2.506370e-02
2.514930e-02
2.513770e-02
2.502880e-02
2.463000e-02
2.447350e-02
2.438260e-02
2.435740e-02
2.439780e-02
2.499690e-02
2.487090e-02
2.480930e-02
2.481210e-02
2.487920e-02
2.534870e-02
2.525660e-02
2.522510e-02
2.525430e-02
2.534410e-02
2.568540e-02
2.563050e-02
2.563010e-02
2.568410e-02
2.579250e-02
2.600690e-02
2.599270e-02
2.602420e-02
2.610150e-02
2.622440e-02
2.439780e-02
2.394440e-02
2.374430e-02
2.379760e-02
2.410410e-02
2.487920e-02
2.453530e-02
2.441580e-02
2.452060e-02
2.484970e-02
2.534410e-02
2.510300e-02
2.505690e-02
2.520570e-02
2.554940e-02
2.579250e-02
2.564740e-02
2.566750e-02
2.585280e-02
2.620330e-02
2.622440e-02
2.616860e-02
2.624780e-02
2.646200e-02
2.681130e-02
2.410410e-02
2.384430e-02
2.399580e-02
2.455870e-02
2.553300e-02
2.484970e-02
2.488540e-02
2.524440e-02
2.592690e-02
2.693280e-02
2.554940e-02
2.579500e-02
2.630300e-02
2.707330e-02
2.810600e-02
2.620330e-02
2.657320e-02
2.717130e-02
2.799780e-02
2.905260e-02
2.681130e-02
2.721980e-02
2.784960e-02
2.870050e-02
2.977250e-02
2.553300e-02
2.766040e-02
2.990530e-02
3.226760e-02
3.474750e-02
2.693280e-02
2.894010e-02
3.119650e-02
3.370210e-02
3.645700e-02
2.810600e-02
3.004690e-02
3.226060e-02
3.474710e-02
3.750650e-02
2.905260e-02
3.098080e-02
3.309750e-02
3.540250e-02
3.789590e-02
2.977250e-02
3.174200e-02
3.370730e-02
3.566840e-02
3.762530e-02
3.474750e-02
4.264980e-02
4.956440e-02
5.549130e-02
6.043050e-02
3.645700e-02
4.329200e-02
4.912320e-02
5.395040e-02
5.777380e-02
3.750650e-02
4.322400e-02
4.800580e-02
5.185180e-02
5.476210e-02
3.789590e-02
4.244570e-02
4.621230e-02
4.919560e-02
5.139560e-02
3.762530e-02
4.095720e-02
4.374260e-02
4.598160e-02
4.767420e-02
6.043050e-02
5.843300e-02
5.578490e-02
5.248640e-02
4.853740e-02
5.777380e-02
5.591110e-02
5.354320e-02
5.067010e-02
4.729180e-02
5.476210e-02
5.318010e-02
5.119420e-02
4.880450e-02
4.601100e-02
5.139560e-02
5.024000e-02
4.873800e-02
4.688970e-02
4.469480e-02
4.767420e-02
4.709090e-02
4.617470e-02
4.492550e-02
4.334340e-02
4.853740e-02
4.334990e-02
3.881810e-02
3.494190e-02
3.172150e-02
4.729180e-02
4.276590e-02
3.880640e-02
3.541330e-02
3.258670e-02
4.601100e-02
4.214270e-02
3.873430e-02
3.578590e-02
3.329750e-02
4.469480e-02
4.148010e-02
3.860180e-02
3.605970e-02
3.385400e-02
4.334340e-02
4.077830e-02
3.840880e-02
3.623470e-02
3.425630e-02
3.172150e-02
3.011100e-02
2.868960e-02
2.745730e-02
2.641400e-02
3.258670e-02
3.098950e-02
2.956730e-02
2.832000e-02
2.724770e-02
3.329750e-02
3.170640e-02
3.028450e-02
2.903170e-02
2.794810e-02
3.385400e-02
3.226180e-02
3.084120e-02
2.959240e-02
2.851530e-02
3.425630e-02
3.265550e-02
3.123750e-02
3.000210e-02
2.894940e-02
2.641400e-02
2.600410e-02
2.561190e-02
2.523750e-02
2.488090e-02
2.724770e-02
2.672530e-02
2.623920e-02
2.578910e-02
2.537510e-02
2.794810e-02
2.733800e-02
2.678000e-02
2.627410e-02
2.582030e-02
2.851530e-02
2.784210e-02
2.723450e-02
2.669260e-02
2.621640e-02
2.894940e-02
2.823760e-02
2.760260e-02
2.704460e-02
2.656330e-02
2.488090e-02
2.506370e-02
2.514930e-02
2.513770e-02
2.502880e-02
2.537510e-02
2.541570e-02
2.539270e-02
2.530620e-02
2.515610e-02
2.582030e-02
2.573540e-02
2.561770e-02
2.546720e-02
2.528380e-02
2.621640e-02
2.602280e-02
2.582430e-02
2.562060e-02
2.541190e-02
2.656330e-02
2.627800e-02
2.601250e-02
2.576660e-02
2.554040e-02
2.600690e-02
2.599270e-02
2.602420e-02
2.610150e-02
2.622440e-02
2.630990e-02
2.633210e-02
2.639350e-02
2.649400e-02
2.663360e-02
2.659390e-02
2.664990e-02
2.673870e-02
2.686040e-02
2.701480e-02
2.685910e-02
2.694610e-02
2.705990e-02
2.720060e-02
2.736820e-02
2.710540e-02
2.722070e-02
2.735710e-02
2.751470e-02
2.769350e-02
2.622440e-02
2.616860e-02
2.624780e-02
2.646200e-02
2.681130e-02
2.663360e-02
2.663160e-02
2.675120e-02
2.699230e-02
2.735490e-02
2.701480e-02
2.705740e-02
2.720950e-02
2.747120e-02
2.784250e-02
2.736820e-02
2.744580e-02
2.762270e-02
2.789870e-02
2.827400e-02
2.769350e-02
2.779700e-02
2.799070e-02
2.827490e-02
2.864940e-02
2.681130e-02
2.721980e-02
2.784960e-02
2.870050e-02
2.977250e-02
2.735490e-02
2.781570e-02
2.846410e-02
2.930010e-02
3.032360e-02
2.784250e-02
2.834370e-02
2.899830e-02
2.980620e-02
3.076750e-02
2.827400e-02
2.880380e-02
2.945220e-02
3.021900e-02
3.110420e-02
2.864940e-02
2.919610e-02
2.982570e-02
3.053820e-02
3.133370e-02
2.977250e-02
3.174200e-02
3.370730e-02
3.566840e-02
3.762530e-02
3.032360e-02
3.213360e-02
3.391400e-02
3.566490e-02
3.738630e-02
3.076750e-02
3.239970e-02
3.399000e-02
3.553840e-02
3.704500e-02
3.110420e-02
3.254030e-02
3.393510e-02
3.528880e-02
3.660130e-02
3.133370e-02
3.255530e-02
3.374950e-02
3.491610e-02
3.605520e-02
3.762530e-02
4.095720e-02
4.374260e-02
4.598160e-02
4.767420e-02
3.738630e-02
4.005570e-02
4.227430e-02
4.404190e-02
4.535870e-02
3.704500e-02
3.918230e-02
4.094680e-02
4.233860e-02
4.335750e-02
3.660130e-02
3.833690e-02
3.976030e-02
4.087150e-02
4.167050e-02
3.605520e-02
3.751950e-02
3.871470e-02
3.964080e-02
4.029780e-02
4.767420e-02
4.709090e-02
4.617470e-02
4.492550e-02
4.334340e-02
4.535870e-02
4.494570e-02
4.423960e-02
4.324030e-02
4.194800e-02
4.335750e-02
4.308000e-02
4.254560e-02
4.175440e-02
4.070640e-02
4.167050e-02
4.149360e-02
4.109260e-02
4.046760e-02
3.961860e-02
4.029780e-02
4.018660e-02
3.988070e-02
3.938000e-02
3.868460e-02
4.334340e-02
4.077830e-02
3.840880e-02
3.623470e-02
3.425630e-02
4.194800e-02
3.977290e-02
3.775790e-02
3.590300e-02
3.420810e-02
4.070640e-02
3.888140e-02
3.717900e-02
3.559890e-02
3.414130e-02
3.961860e-02
3.810380e-02
3.667180e-02
3.532250e-02
3.405580e-02
3.868460e-02
3.744010e-02
3.623650e-02
3.507360e-02
3.395160e-02
3.425630e-02
3.265550e-02
3.123750e-02
3.000210e-02
2.894940e-02
3.420810e-02
3.276060e-02
3.146110e-02
3.030950e-02
2.930580e-02
3.414130e-02
3.282270e-02
3.162580e-02
3.055060e-02
2.959720e-02
3.405580e-02
3.284180e-02
3.173180e-02
3.072570e-02
2.982350e-02
3.395160e-02
3.281790e-02
3.177890e-02
3.083460e-02
2.998500e-02
2.894940e-02
2.823760e-02
2.760260e-02
2.704460e-02
2.656330e-02
2.930580e-02
2.858650e-02
2.794150e-02
2.737060e-02
2.687380e-02
2.959720e-02
2.887710e-02
2.822820e-02
2.765030e-02
2.714350e-02
2.982350e-02
2.910940e-02
2.846270e-02
2.788370e-02
2.737220e-02
2.998500e-02
2.928320e-02
2.864520e-02
2.807070e-02
2.755990e-02
2.656330e-02
2.627800e-02
2.601250e-02
2.576660e-02
2.554040e-02
2.687380e-02
2.653260e-02
2.622090e-02
2.593860e-02
2.568570e-02
2.714350e-02
2.675740e-02
2.640850e-02
2.609680e-02
2.582230e-02
2.737220e-02
2.695230e-02
2.657530e-02
2.624130e-02
2.595020e-02
2.755990e-02
2.711730e-02
2.672140e-02
2.637210e-02
2.606950e-02
2.710540e-02
2.722070e-02
2.735710e-02
2.751470e-02
2.769350e-02
2.733260e-02
2.746540e-02
2.761710e-02
2.778770e-02
2.797730e-02
2.754220e-02
2.768990e-02
2.785420e-02
2.803510e-02
2.823270e-02
2.773410e-02
2.789420e-02
2.806850e-02
2.825700e-02
2.845960e-02
2.790840e-02