<?xml version="1.0"?>
<VTKFile type="UnstructuredGrid" version="0.1" byte_order="LittleEndian" compressor="vtkZLibDataCompressor">
<UnstructuredGrid>
<Piece NumberOfPoints="2500" NumberOfCells="1600">
<Points>
<DataArray type="Float32" NumberOfComponents="3" format="ascii">
-3.630000e+00 0.000000e+00 0.000000e+00
-3.448500e+00 0.000000e+00 0.000000e+00
-3.267000e+00 0.000000e+00 0.000000e+00
-3.085500e+00 0.000000e+00 0.000000e+00
-2.904000e+00 0.000000e+00 0.000000e+00
-3.630000e+00 1.282500e-01 0.000000e+00
-3.448500e+00 1.282500e-01 0.000000e+00
-3.267000e+00 1.282500e-01 0.000000e+00
-3.085500e+00 1.282500e-01 0.000000e+00
-2.904000e+00 1.282500e-01 0.000000e+00
-3.630000e+00 2.565000e-01 0.000000e+00
-3.448500e+00 2.565000e-01 0.000000e+00
-3.267000e+00 2.565000e-01 0.000000e+00
-3.085500e+00 2.565000e-01 0.000000e+00
-2.904000e+00 2.565000e-01 0.000000e+00
-3.630000e+00 3.847500e-01 0.000000e+00
-3.448500e+00 3.847500e-01 0.000000e+00
-3.267000e+00 3.847500e-01 0.000000e+00
-3.085500e+00 3.847500e-01 0.000000e+00
-2.904000e+00 3.847500e-01 0.000000e+00
-3.630000e+00 5.130000e-01 0.000000e+00
-3.448500e+00 5.130000e-01 0.000000e+00
-3.267000e+00 5.130000e-01 0.000000e+00
-3.085500e+00 5.130000e-01 0.000000e+00
-2.904000e+00 5.130000e-01 0.000000e+00
-2.904000e+00 0.000000e+00 0.000000e+00
-2.722500e+00 0.000000e+00 0.000000e+00
-2.541000e+00 0.000000e+00 0.000000e+00
-2.359500e+00 0.000000e+00 0.000000e+00
-2.178000e+00 0.000000e+00 0.000000e+00
-2.904000e+00 1.282500e-01 0.000000e+00
-2.722500e+00 1.282500e-01 0.000000e+00
-2.541000e+00 1.282500e-01 0.000000e+00
-2.359500e+00 1.282500e-01 0.000000e+00
-2.178000e+00 1.282500e-01 0.000000e+00
-2.904000e+00 2.565000e-01 0.000000e+00
-2.722500e+00 2.565000e-01 0.000000e+00
-2.541000e+00 2.565000e-01 0.000000e+00
-2.359500e+00 2.565000e-01 0.000000e+00
-2.178000e+00 2.565000e-01 0.000000e+00
-2.904000e+00 3.847500e-01 0.000000e+00
-2.722500e+00 3.847500e-01 0.000000e+00
-2.541000e+00 3.847500e-01 0.000000e+00
-2.359500e+00 3.847500e-01 0.000000e+00
-2.178000e+00 3.847500e-01 0.000000e+00
-2.904000e+00 5.130000e-01 0.000000e+00
-2.722500e+00 5.130000e-01 0.000000e+00
-2.541000e+00 5.130000e-01 0.000000e+00
-2.359500e+00 5.130000e-01 0.000000e+00
-2.178000e+00 5.130000e-01 0.000000e+00
-2.178000e+00 0.000000e+00 0.000000e+00
-1.996500e+00 0.000000e+00 0.000000e+00
-1.815000e+00 0.000000e+00 0.000000e+00
-1.633500e+00 0.000000e+00 0.000000e+00
-1.452000e+00 0.000000e+00 0.000000e+00
-2.178000e+00 1.282500e-01 0.000000e+00
-1.996500e+00 1.282500e-01 0.000000e+00
-1.815000e+00 1.282500e-01 0.000000e+00
-1.633500e+00 1.282500e-01 0.000000e+00
-1.452000e+00 1.282500e-01 0.000000e+00
-2.178000e+00 2.565000e-01 0.000000e+00
-1.996500e+00 2.565000e-01 0.000000e+00
-1.815000e+00 2.565000e-01 0.000000e+00
-1.633500e+00 2.565000e-01 0.000000e+00
-1.452000e+00 2.565000e-01 0.000000e+00
-2.178000e+00 3.847500e-01 0.000000e+00
-1.996500e+00 3.847500e-01 0.000000e+00
-1.815000e+00 3.847500e-01 0.000000e+00
-1.633500e+00 3.847500e-01 0.000000e+00
-1.452000e+00 3.847500e-01 0.000000e+00
-2.178000e+00 5.130000e-01 0.000000e+00
-1.996500e+00 5.130000e-01 0.000000e+00
-1.815000e+00 5.130000e-01 0.000000e+00
-1.633500e+00 5.130000e-01 0.000000e+00
-1.452000e+00 5.130000e-01 0.000000e+00
-1.452000e+00 0.000000e+00 0.000000e+00
-1.270500e+00 0.000000e+00 0.000000e+00
-1.089000e+00 0.000000e+00 0.000000e+00
-9.075000e-01 0.000000e+00 0.000000e+00
-7.260000e-01 0.000000e+00 0.000000e+00
-1.452000e+00 1.282500e-01 0.000000e+00
-1.270500e+00 1.282500e-01 0.000000e+00
-1.089000e+00 1.282500e-01 0.000000e+00
-9.075000e-01 1.282500e-01 0.000000e+00
-7.260000e-01 1.282500e-01 0.000000e+00
-1.452000e+00 2.565000e-01 0.000000e+00
-1.270500e+00 2.565000e-01 0.000000e+00
-1.089000e+00 2.565000e-01 0.000000e+00
-9.075000e-01 2.565000e-01 0.000000e+00
-7.260000e-01 2.565000e-01 0.000000e+00
-1.452000e+00 3.847500e-01 0.000000e+00
-1.270500e+00 3.847500e-01 0.000000e+00
-1.089000e+00 3.847500e-01 0.000000e+00
-9.075000e-01 3.847500e-01 0.000000e+00
-7.260000e-01 3.847500e-01 0.000000e+00
-1.452000e+00 5.130000e-01 0.000000e+00
-1.270500e+00 5.130000e-01 0.000000e+00
-1.089000e+00 5.130000e-01 0.000000e+00
-9.075000e-01 5.130000e-01 0.000000e+00
-7.260000e-01 5.130000e-01 0.000000e+00
-7.260000e-01 0.000000e+00 0.000000e+00
-5.445000e-01 0.000000e+00 0.000000e+00
-3.630000e-01 0.000000e+00 0.000000e+00
-1.815000e-01 0.000000e+00 0.000000e+00
0.000000e+00 0.000000e+00 0.000000e+00
-7.260000e-01 1.282500e-01 0.000000e+00
-5.445000e-01 1.282500e-01 0.000000e+00
-3.630000e-01 1.282500e-01 0.000000e+00
-1.815000e-01 1.282500e-01 0.000000e+00
0.000000e+00 1.282500e-01 0.000000e+00
-7.260000e-01 2.565000e-01 0.000000e+00
-5.445000e-01 2.565000e-01 0.000000e+00
-3.630000e-01 2.565000e-01 0.000000e+00
-1.815000e-01 2.565000e-01 0.000000e+00
0.000000e+00 2.565000e-01 0.000000e+00
-7.260000e-01 3.847500e-01 0.000000e+00
-5.445000e-01 3.847500e-01 0.000000e+00
-3.630000e-01 3.847500e-01 0.000000e+00
-1.815000e-01 3.847500e-01 0.000000e+00
0.000000e+00 3.847500e-01 0.000000e+00
-7.260000e-01 5.130000e-01 0.000000e+00
-5.445000e-01 5.130000e-01 0.000000e+00
-3.630000e-01 5.130000e-01 0.000000e+00
-1.815000e-01 5.130000e-01 0.000000e+00
0.000000e+00 5.130000e-01 0.000000e+00
0.000000e+00 0.000000e+00 0.000000e+00
1.815000e-01 0.000000e+00 0.000000e+00
3.630000e-01 0.000000e+00 0.000000e+00
5.445000e-01 0.000000e+00 0.000000e+00
7.260000e-01 0.000000e+00 0.000000e+00
0.000000e+00 1.282500e-01 0.000000e+00
1.815000e-01 1.282500e-01 0.000000e+00
3.630000e-01 1.282500e-01 0.000000e+00
5.445000e-01 1.282500e-01 0.000000e+00
7.260000e-01 1.282500e-01 0.000000e+00
0.000000e+00 2.565000e-01 0.000000e+00
1.815000e-01 2.565000e-01 0.000000e+00
3.630000e-01 2.565000e-01 0.000000e+00
5.445000e-01 2.565000e-01 0.000000e+00
7.260000e-01 2.565000e-01 0.000000e+00
0.000000e+00 3.847500e-01 0.000000e+00
1.815000e-01 3.847500e-01 0.000000e+00
3.630000e-01 3.847500e-01 0.000000e+00
5.445000e-01 3.847500e-01 0.000000e+00
7.260000e-01 3.847500e-01 0.000000e+00
0.000000e+00 5.130000e-01 0.000000e+00
1.815000e-01 5.130000e-01 0.000000e+00
3.630000e-01 5.130000e-01 0.000000e+00
5.445000e-01 5.130000e-01 0.000000e+00
7.260000e-01 5.130000e-01 0.000000e+00
7.260000e-01 0.000000e+00 0.000000e+00
9.075000e-01 0.000000e+00 0.000000e+00
1.089000e+00 0.000000e+00 0.000000e+00
1.270500e+00 0.000000e+00 0.000000e+00
1.452000e+00 0.000000e+00 0.000000e+00
7.260000e-01 1.282500e-01 0.000000e+00
9.075000e-01 1.282500e-01 0.000000e+00
1.089000e+00 1.282500e-01 0.000000e+00
1.270500e+00 1.282500e-01 0.000000e+00
1.452000e+00 1.282500e-01 0.000000e+00
7.260000e-01 2.565000e-01 0.000000e+00
9.075000e-01 2.565000e-01 0.000000e+00
1.089000e+00 2.565000e-01 0.000000e+00
1.270500e+00 2.565000e-01 0.000000e+00
1.452000e+00 2.565000e-01 0.000000e+00
7.260000e-01 3.847500e-01 0.000000e+00
9.075000e-01 3.847500e-01 0.000000e+00
1.089000e+00 3.847500e-01 0.000000e+00
1.270500e+00 3.847500e-01 0.000000e+00
1.452000e+00 3.847500e-01 0.000000e+00
7.260000e-01 5.130000e-01 0.000000e+00
9.075000e-01 5.130000e-01 0.000000e+00
1.089000e+00 5.130000e-01 0.000000e+00
1.270500e+00 5.130000e-01 0.000000e+00
1.452000e+00 5.130000e-01 0.000000e+00
1.452000e+00 0.000000e+00 0.000000e+00
1.633500e+00 0.000000e+00 0.000000e+00
1.815000e+00 0.000000e+00 0.000000e+00
1.996500e+00 0.000000e+00 0.000000e+00
2.178000e+00 0.000000e+00 0.000000e+00
1.452000e+00 1.282500e-01 0.000000e+00
1.633500e+00 1.282500e-01 0.000000e+00
1.815000e+00 1.282500e-01 0.000000e+00
1.996500e+00 1.282500e-01 0.000000e+00
2.178000e+00 1.282500e-01 0.000000e+00
1.452000e+00 2.565000e-01 0.000000e+00
1.633500e+00 2.565000e-01 0.000000e+00
1.815000e+00 2.565000e-01 0.000000e+00
1.996500e+00 2.565000e-01 0.000000e+00
2.178000e+00 2.565000e-01 0.000000e+00
1.452000e+00 3.847500e-01 0.000000e+00
1.633500e+00 3.847500e-01 0.000000e+00
1.815000e+00 3.847500e-01 0.000000e+00
1.996500e+00 3.847500e-01 0.000000e+00
2.178000e+00 3.847500e-01 0.000000e+00
1.452000e+00 5.130000e-01 0.000000e+00
1.633500e+00 5.130000e-01 0.000000e+00
1.815000e+00 5.130000e-01 0.000000e+00
1.996500e+00 5.130000e-01 0.000000e+00
2.178000e+00 5.130000e-01 0.000000e+00
2.178000e+00 0.000000e+00 0.000000e+00
2.359500e+00 0.000000e+00 0.000000e+00
2.541000e+00 0.000000e+00 0.000000e+00
2.722500e+00 0.000000e+00 0.000000e+00
2.904000e+00 0.000000e+00 0.000000e+00
2.178000e+00 1.282500e-01 0.000000e+00
2.359500e+00 1.282500e-01 0.000000e+00
2.541000e+00 1.282500e-01 0.000000e+00
2.722500e+00 1.282500e-01 0.000000e+00
2.904000e+00 1.282500e-01 0.000000e+00
2.178000e+00 2.565000e-01 0.000000e+00
2.359500e+00 2.565000e-01 0.000000e+00
2.541000e+00 2.565000e-01 0.000000e+00
2.722500e+00 2.565000e-01 0.000000e+00
2.904000e+00 2.565000e-01 0.000000e+00
2.178000e+00 3.847500e-01 0.000000e+00
2.359500e+00 3.847500e-01 0.000000e+00
2.541000e+00 3.847500e-01 0.000000e+00
2.722500e+00 3.847500e-01 0.000000e+00
2.904000e+00 3.847500e-01 0.000000e+00
2.178000e+00 5.130000e-01 0.000000e+00
2.359500e+00 5.130000e-01 0.000000e+00
2.541000e+00 5.130000e-01 0.000000e+00
2.722500e+00 5.130000e-01 0.000000e+00
2.904000e+00 5.130000e-01 0.000000e+00
2.904000e+00 0.000000e+00 0.000000e+00
3.085500e+00 0.000000e+00 0.000000e+00
3.267000e+00 0.000000e+00 0.000000e+00
3.448500e+00 0.000000e+00 0.000000e+00
3.630000e+00 0.000000e+00 0.000000e+00
2.904000e+00 1.282500e-01 0.000000e+00
3.085500e+00 1.282500e-01 0.000000e+00
3.267000e+00 1.282500e-01 0.000000e+00
3.448500e+00 1.282500e-01 0.000000e+00
3.630000e+00 1.282500e-01 0.000000e+00
2.904000e+00 2.565000e-01 0.000000e+00
3.085500e+00 2.565000e-01 0.000000e+00
3.267000e+00 2.565000e-01 0.000000e+00
3.448500e+00 2.565000e-01 0.000000e+00
3.630000e+00 2.565000e-01 0.000000e+00
2.904000e+00 3.847500e-01 0.000000e+00
3.085500e+00 3.847500e-01 0.000000e+00
3.267000e+00 3.847500e-01 0.000000e+00
3.448500e+00 3.847500e-01 0.000000e+00
3.630000e+00 3.847500e-01 0.000000e+00
2.904000e+00 5.130000e-01 0.000000e+00
[...]
<PointData>
<DataArray type="Float32" Name="V1" format="ascii">
0.000000e+00
0.000000e+00
0.000000e+00
0.000000e+00
0.000000e+00
1.264110e-02
1.137340e-02
1.036330e-02
9.610770e-03
9.115830e-03
2.028400e-02
1.867360e-02
1.730420e-02
1.617570e-02
1.528820e-02
2.292870e-02
2.190060e-02
2.082260e-02
1.969470e-02
1.851700e-02
2.057510e-02
2.105430e-02
2.091850e-02
2.016790e-02
1.880230e-02
0.000000e+00
0.000000e+00
0.000000e+00
0.000000e+00
0.000000e+00
9.115830e-03
8.375830e-03
7.357960e-03
6.062200e-03
4.488570e-03
1.528820e-02
1.415690e-02
1.252680e-02
1.039780e-02
7.769910e-03
1.851700e-02
1.734330e-02
1.550660e-02
1.300690e-02
9.844040e-03
1.880230e-02
1.793500e-02
1.629730e-02
1.388930e-02
1.071100e-02
0.000000e+00
0.000000e+00
0.000000e+00
0.000000e+00
0.000000e+00
4.488570e-03
1.995440e-03
6.158730e-04
3.498750e-04
1.197440e-03
7.769910e-03
3.569910e-03
1.233940e-03
7.619850e-04
2.154060e-03
9.844040e-03
4.723430e-03
1.854190e-03
1.236330e-03
2.869850e-03
1.071100e-02
5.455980e-03
2.476630e-03
1.772910e-03
3.344820e-03
0.000000e+00
0.000000e+00
0.000000e+00
0.000000e+00
0.000000e+00
1.197440e-03
-4.706140e-03
-1.075370e-02
-1.694540e-02
-2.328100e-02
2.154060e-03
-8.581080e-03
-1.926110e-02
-2.988610e-02
-4.045590e-02
2.869850e-03
-1.162480e-02
-2.552210e-02
-3.882210e-02
-5.152470e-02
3.344820e-03
-1.383740e-02
-2.953680e-02
-4.375350e-02
-5.648730e-02
0.000000e+00
0.000000e+00
0.000000e+00
0.000000e+00
0.000000e+00
-2.328100e-02
-2.805910e-02
-3.463630e-02
-4.301270e-02
-5.318830e-02
-4.045590e-02
-4.894980e-02
-5.945100e-02
-7.195950e-02
-8.647530e-02
-5.152470e-02
-6.267230e-02
-7.444420e-02
-8.684040e-02
-9.986100e-02
-5.648730e-02
-6.922640e-02
-7.961580e-02
-8.765540e-02
-9.334530e-02
0.000000e+00
0.000000e+00
0.000000e+00
0.000000e+00
0.000000e+00
-5.318830e-02
-5.010650e-02
-4.451600e-02
-3.641680e-02
-2.580890e-02
-8.647530e-02
-8.007910e-02
-7.021170e-02
-5.687310e-02
-4.006340e-02
-9.986100e-02
-8.991780e-02
-7.708720e-02
-6.136910e-02
-4.276360e-02
-9.334530e-02
-7.962260e-02
-6.514240e-02
-4.990460e-02
-3.390930e-02
0.000000e+00
0.000000e+00
0.000000e+00
0.000000e+00
0.000000e+00
-2.580890e-02
-2.017070e-02
-1.511490e-02
-1.064150e-02
-6.750560e-03
-4.006340e-02
-3.113860e-02
-2.327040e-02
-1.645880e-02
-1.070390e-02
-4.276360e-02
-3.290370e-02
-2.446650e-02
-1.745190e-02
-1.186000e-02
-3.390930e-02
-2.546610e-02
-1.870330e-02
-1.362090e-02
-1.021880e-02
0.000000e+00
0.000000e+00
0.000000e+00
0.000000e+00
0.000000e+00
-6.750560e-03
-1.288880e-03
2.635200e-03
5.021680e-03
5.870570e-03
-1.070390e-02
-1.856140e-03
4.542470e-03
8.491930e-03
9.992250e-03
-1.186000e-02
-1.701760e-03
5.721810e-03
1.041070e-02
1.236500e-02
-1.021880e-02
-8.257480e-04
6.173230e-03
1.077810e-02
1.298890e-02
0.000000e+00
0.000000e+00
0.000000e+00
0.000000e+00
0.000000e+00
5.870570e-03
7.142110e-03
8.285370e-03
9.300370e-03
1.018710e-02
9.992250e-03
1.197390e-02
1.376930e-02
1.537850e-02
1.680150e-02
1.236500e-02
1.449520e-02
1.645170e-02
1.823430e-02
1.984320e-02
1.298890e-02
1.470630e-02
1.633260e-02
1.786790e-02
1.931210e-02
0.000000e+00
0.000000e+00
0.000000e+00
0.000000e+00
0.000000e+00
1.018710e-02
1.087410e-02
1.163370e-02
1.246600e-02
1.337100e-02
1.680150e-02
1.804630e-02
1.932170e-02
2.062770e-02
2.196430e-02
1.984320e-02
2.151670e-02
2.306400e-02
2.448520e-02
2.578010e-02
1.931210e-02
2.128520e-02
2.286050e-02
2.403830e-02
2.481830e-02
2.057510e-02
2.105430e-02
2.091850e-02
2.016790e-02
1.880230e-02
2.078850e-02
2.064380e-02
2.020050e-02
1.945880e-02
1.841870e-02
2.103660e-02
2.050980e-02
1.990240e-02
1.921430e-02
1.844570e-02
2.131930e-02
2.065230e-02
2.002400e-02
1.943440e-02
1.888330e-02
2.163650e-02
2.107140e-02
2.056560e-02
2.011890e-02
1.973160e-02
1.880230e-02
1.793500e-02
1.629730e-02
1.388930e-02
1.071100e-02
1.841870e-02
1.745010e-02
1.602870e-02
1.415440e-02
1.182710e-02
1.844570e-02
1.735740e-02
1.612810e-02
1.475800e-02
1.324680e-02
1.888330e-02
1.765670e-02
1.659560e-02
1.570000e-02
1.496990e-02
1.973160e-02
1.834820e-02
1.743120e-02
1.698070e-02
1.699650e-02
1.071100e-02
5.455980e-03
2.476630e-03
1.772910e-03
3.344820e-03
1.182710e-02
6.571950e-03
4.078700e-03
4.347390e-03
7.378020e-03
1.324680e-02
7.919470e-03
5.867310e-03
7.090310e-03
1.158850e-02
1.496990e-02
9.498550e-03
7.842460e-03
1.000170e-02
1.597610e-02
1.699650e-02
1.130920e-02
1.000420e-02
1.308140e-02
2.054100e-02
3.344820e-03
-1.383740e-02
-2.953680e-02
-4.375350e-02
-5.648730e-02
7.378020e-03
-7.568580e-03
-2.079840e-02
-3.231150e-02
-4.210780e-02
1.158850e-02
-1.117340e-03
-1.179740e-02
-2.045180e-02
-2.708050e-02
1.597610e-02
5.516320e-03
-2.533880e-03
-8.174490e-03
-1.140550e-02
2.054100e-02
1.233240e-02
6.992250e-03
4.520500e-03
4.917170e-03
-5.648730e-02
-6.922640e-02
-7.961580e-02
-8.765540e-02
-9.334530e-02
-4.210780e-02
-5.340180e-02
-6.469240e-02
-7.597960e-02
-8.726330e-02
-2.708050e-02
-3.558860e-02
-4.555520e-02
-5.698010e-02
-6.986340e-02
-1.140550e-02
-1.578700e-02
-2.220420e-02
-3.065700e-02
-4.114550e-02
4.917170e-03
6.003070e-03
5.360560e-03
2.989650e-03
-1.109680e-03
-9.334530e-02
-7.962260e-02
-6.514240e-02
-4.990460e-02
-3.390930e-02
-8.726330e-02
-7.407180e-02
-5.978790e-02
-4.441140e-02
-2.794240e-02
-6.986340e-02
-5.874560e-02
-4.655700e-02
-3.329760e-02
-1.896730e-02
-4.114550e-02
-3.364390e-02
-2.544980e-02
-1.656320e-02
-6.984130e-03
-1.109680e-03
1.233230e-03
3.533680e-03
5.791680e-03
8.007220e-03
-3.390930e-02
-2.546610e-02
-1.870330e-02
-1.362090e-02
-1.021880e-02
-2.794240e-02
-1.996310e-02
-1.424000e-02
-1.077290e-02
-9.561970e-03
-1.896730e-02
-1.217920e-02
-8.001650e-03
-6.434660e-03
-7.478230e-03
-6.984130e-03
-2.114350e-03
1.167070e-05
-6.060800e-04
-3.967600e-03
8.007220e-03
1.023150e-02
9.799980e-03
6.712800e-03
9.699140e-04
-1.021880e-02
-8.257480e-04
6.173230e-03
1.077810e-02
1.298890e-02
-9.561970e-03
8.576500e-04
8.315770e-03
1.281240e-02
1.434750e-02
-7.478230e-03
3.114770e-03
1.052360e-02
1.474840e-02
1.578900e-02
-3.967600e-03
5.945610e-03
1.279680e-02
1.658610e-02
1.731330e-02
9.699140e-04
9.350160e-03
1.513530e-02
1.832540e-02
1.892050e-02
1.298890e-02
1.470630e-02
1.633260e-02
1.786790e-02
1.931210e-02
1.434750e-02
1.527930e-02
1.630950e-02
1.743820e-02
1.866550e-02
1.578900e-02
1.608100e-02
1.661270e-02
1.738430e-02
1.839560e-02
1.731330e-02
1.711150e-02
1.724230e-02
1.770590e-02
1.850230e-02
1.892050e-02
1.837070e-02
1.819830e-02
1.840330e-02
1.898570e-02
1.931210e-02
2.128520e-02
2.286050e-02
2.403830e-02
2.481830e-02
1.866550e-02
2.078090e-02
2.238000e-02
2.346270e-02
2.402900e-02
1.839560e-02
2.063410e-02
2.224360e-02
2.322400e-02
2.357550e-02
1.850230e-02
2.084460e-02
2.245120e-02
2.332230e-02
2.345790e-02
1.898570e-02
2.141240e-02
2.300300e-02
2.375760e-02
2.367610e-02
2.163650e-02
2.107140e-02
2.056560e-02
2.011890e-02
1.973160e-02
2.197900e-02
2.141340e-02
2.097610e-02
2.066710e-02
2.048640e-02
2.233590e-02
2.179490e-02
2.142850e-02
2.123660e-02
2.121930e-02
2.270730e-02
2.221600e-02
2.192270e-02
2.182750e-02
2.193040e-02
2.309330e-02
2.267660e-02
2.245870e-02
2.243970e-02
2.261950e-02
1.973160e-02
1.834820e-02
1.743120e-02
1.698070e-02
1.699650e-02
2.048640e-02
1.900050e-02
1.822790e-02
1.816860e-02
1.882270e-02
2.121930e-02
1.970810e-02
1.907120e-02
1.930870e-02
2.042040e-02
2.193040e-02
2.047110e-02
1.996120e-02
2.040080e-02
2.178970e-02
2.261950e-02
2.128950e-02
2.089790e-02
2.144500e-02
2.293060e-02
1.699650e-02
1.130920e-02
1.000420e-02
1.308140e-02
2.054100e-02
1.882270e-02
1.350010e-02
1.248460e-02
1.577630e-02
2.337500e-02
2.042040e-02
1.579150e-02
1.509760e-02
1.833870e-02
2.551480e-02
2.178970e-02
1.818330e-02
1.784300e-02
2.076860e-02
2.696030e-02
2.293060e-02
2.067560e-02
2.072080e-02
2.306610e-02
2.771160e-02
2.054100e-02
1.233240e-02
6.992250e-03
4.520500e-03
4.917170e-03
2.337500e-02
1.787380e-02
1.507090e-02
1.496650e-02
1.756040e-02
2.551480e-02
2.256820e-02
2.189890e-02
2.350700e-02
2.739230e-02
2.696030e-02
2.641560e-02
2.747620e-02
3.014200e-02
3.441310e-02
2.771160e-02
2.941610e-02
3.180280e-02
3.487160e-02
3.862260e-02
4.917170e-03
6.003070e-03
5.360560e-03
2.989650e-03
-1.109680e-03
1.756040e-02
2.497960e-02
3.117530e-02
3.614740e-02
3.989610e-02
2.739230e-02
3.901120e-02
4.962540e-02
5.923510e-02
6.784010e-02
3.441310e-02
4.809790e-02
6.071100e-02
7.225250e-02
8.272230e-02
3.862260e-02
5.223960e-02
6.443190e-02
7.519970e-02
8.454280e-02
-1.109680e-03
1.233230e-03
3.533680e-03
5.791680e-03
8.007220e-03
3.989610e-02
3.256360e-02
2.675760e-02
2.247810e-02
1.972500e-02
6.784010e-02
5.518470e-02
4.466720e-02
3.628740e-02
3.004550e-02
8.272230e-02
6.909660e-02
5.726240e-02
4.721980e-02
3.896870e-02
8.454280e-02
7.429920e-02
6.454320e-02
5.527510e-02
4.649470e-02
8.007220e-03
1.023150e-02
9.799980e-03
6.712800e-03
9.699140e-04
1.972500e-02
1.965670e-02
1.753510e-02
1.336010e-02
7.131790e-03
3.004550e-02
2.771930e-02
2.403080e-02
1.897990e-02
1.256660e-02
3.896870e-02
3.441930e-02
2.928710e-02
2.357210e-02
1.727440e-02
4.649470e-02
3.975650e-02
3.330390e-02
2.713670e-02
2.125520e-02
9.699140e-04
9.350160e-03
1.513530e-02
1.832540e-02
1.892050e-02
7.131790e-03
1.303070e-02
1.714510e-02
1.947510e-02
2.002060e-02
1.256660e-02
1.640780e-02
1.911300e-02
2.068210e-02
2.111510e-02
1.727440e-02
1.948150e-02
2.103880e-02
2.194640e-02
2.220420e-02
2.125520e-02
2.225170e-02
2.292270e-02
2.326800e-02
2.328780e-02
1.892050e-02
1.837070e-02
1.819830e-02
1.840330e-02
1.898570e-02
2.002060e-02
1.946700e-02
1.920290e-02
1.922820e-02
1.954310e-02
2.111510e-02
2.055300e-02
2.020600e-02
2.007430e-02
2.015790e-02
2.220420e-02
2.162870e-02
2.120780e-02
2.094160e-02
2.082990e-02
2.328780e-02
2.269420e-02
2.220820e-02
2.182990e-02
2.155930e-02
1.898570e-02
2.141240e-02
2.300300e-02
2.375760e-02
2.367610e-02
1.954310e-02
2.169790e-02
2.311330e-02
2.378910e-02
2.372540e-02
2.015790e-02
2.203900e-02
2.327480e-02
2.386540e-02
2.381070e-02
2.082990e-02
2.243560e-02
2.348780e-02
2.398650e-02
2.393180e-02
2.155930e-02
2.288770e-02
2.375210e-02
2.415250e-02
2.408880e-02
2.309330e-02
2.267660e-02
2.245870e-02
2.243970e-02
2.261950e-02
2.348320e-02
2.314520e-02
2.299420e-02
2.303030e-02
2.325350e-02
2.386930e-02
2.360300e-02
2.351080e-02
2.359260e-02
2.384850e-02
2.425160e-02
2.405010e-02
2.400840e-02
2.412650e-02
2.440450e-02
2.463000e-02
2.448630e-02
2.448700e-02
2.463200e-02
2.492140e-02
2.261950e-02
2.128950e-02
2.089790e-02
2.144500e-02
2.293060e-02
2.325350e-02
2.218490e-02
2.192430e-02
2.247180e-02
2.382740e-02
2.384850e-02
2.304570e-02
2.291310e-02
2.345080e-02
2.465880e-02
2.440450e-02
2.387190e-02
2.386450e-02
2.438210e-02
2.542480e-02
2.492140e-02
2.466360e-02
2.477830e-02
2.526550e-02
2.612530e-02
2.293060e-02
2.067560e-02
2.072080e-02
2.306610e-02
2.771160e-02
2.382740e-02
2.261500e-02
2.301750e-02
2.503480e-02
2.866690e-02
2.465880e-02
2.429130e-02
2.498130e-02
2.672890e-02
2.953400e-02
2.542480e-02
2.570430e-02
2.661210e-02
2.814840e-02
3.031300e-02
2.612530e-02
2.685410e-02
2.791010e-02
2.929340e-02
3.100390e-02
2.771160e-02
2.941610e-02
3.180280e-02
3.487160e-02
3.862260e-02
2.866690e-02
3.141180e-02
3.444930e-02
3.777930e-02
4.140180e-02
2.953400e-02
3.291690e-02
3.629890e-02
3.968010e-02
4.306040e-02
3.031300e-02
3.393130e-02
3.735160e-02
4.057390e-02
4.359820e-02
3.100390e-02
3.445510e-02
3.760750e-02
4.046090e-02
4.301540e-02
3.862260e-02
5.223960e-02
6.443190e-02
7.519970e-02
8.454280e-02
4.140180e-02
5.318560e-02
6.376490e-02
7.313980e-02
8.131010e-02
4.306040e-02
5.285320e-02
6.162600e-02
6.937890e-02
7.611190e-02
4.359820e-02
5.124220e-02
5.801520e-02
6.391720e-02
6.894830e-02
4.301540e-02
4.835270e-02
5.293240e-02
5.675460e-02
5.981920e-02
8.454280e-02
7.429920e-02
6.454320e-02
5.527510e-02
4.649470e-02
8.131010e-02
7.204610e-02
6.319250e-02
5.474950e-02
4.671690e-02
7.611190e-02
6.837490e-02
6.095070e-02
5.383920e-02
4.704050e-02
6.894830e-02
6.328570e-02
5.781770e-02
5.254430e-02
4.746550e-02
5.981920e-02
5.677840e-02
5.379360e-02
5.086480e-02
4.799190e-02
4.649470e-02
3.975650e-02
3.330390e-02
2.713670e-02
2.125520e-02
4.671690e-02
4.037930e-02
3.447640e-02
2.900840e-02
2.397500e-02
4.704050e-02
4.107210e-02
3.562160e-02
3.068900e-02
2.627440e-02
4.746550e-02
4.183490e-02
3.673930e-02
3.217870e-02
2.815310e-02
4.799190e-02
4.266770e-02
3.782950e-02
3.347730e-02
2.961120e-02
2.125520e-02
2.225170e-02
2.292270e-02
2.326800e-02
2.328780e-02
2.397500e-02
2.441190e-02
2.462260e-02
2.460720e-02
2.436560e-02
2.627440e-02
2.623980e-02
2.606830e-02
2.575970e-02
2.531410e-02
2.815310e-02
2.773540e-02
2.725960e-02
2.672550e-02
2.613320e-02
2.961120e-02
2.889870e-02
2.819660e-02
2.750470e-02
2.682300e-02
2.328780e-02
2.269420e-02
2.220820e-02
2.182990e-02
2.155930e-02
2.436560e-02
2.366750e-02
2.307110e-02
2.257640e-02
2.218340e-02
2.531410e-02
2.453590e-02
2.385720e-02
2.327800e-02
2.279840e-02
2.613320e-02
2.529940e-02
2.456660e-02
2.393480e-02
2.340410e-02
2.682300e-02
2.595790e-02
2.519920e-02
2.454680e-02
2.400070e-02
2.155930e-02
2.288770e-02
2.375210e-02
2.415250e-02
2.408880e-02
2.218340e-02
2.333400e-02
2.405920e-02
2.435900e-02
2.423330e-02
2.279840e-02
2.377270e-02
2.436020e-02
2.456100e-02
2.437490e-02
2.340410e-02
2.420370e-02
2.465510e-02
2.475850e-02
2.451370e-02
2.400070e-02
2.462710e-02
2.494400e-02
2.495150e-02
2.464950e-02
2.463000e-02
2.448630e-02
2.448700e-02
2.463200e-02
2.492140e-02
2.499690e-02
2.490000e-02
2.493640e-02
2.510580e-02
2.540850e-02
2.534870e-02
2.529630e-02
2.536540e-02
2.555590e-02
2.586780e-02
2.568540e-02
2.567520e-02
2.577410e-02
2.598210e-02
2.629920e-02
2.600690e-02
2.603660e-02
2.616240e-02
2.638450e-02
2.670280e-02
2.492140e-02
2.466360e-02
2.477830e-02
2.526550e-02
2.612530e-02
2.540850e-02
2.533460e-02
2.554190e-02
2.603040e-02
2.680010e-02
2.586780e-02
2.594360e-02
2.622720e-02
2.671850e-02
2.741770e-02
2.629920e-02
2.649050e-02
2.683410e-02
2.732990e-02
2.797800e-02
2.670280e-02
2.697550e-02
2.736270e-02
2.786460e-02
2.848100e-02
2.612530e-02
2.685410e-02
2.791010e-02
2.929340e-02
3.100390e-02
2.680010e-02
2.776120e-02
2.889850e-02
3.021200e-02
3.170180e-02
2.741770e-02
2.851910e-02
2.969330e-02
3.094050e-02
3.226050e-02
2.797800e-02
2.912780e-02
3.029480e-02
3.147880e-02
3.267990e-02
2.848100e-02
2.958740e-02
3.070270e-02
3.182700e-02
3.296020e-02
3.100390e-02
3.445510e-02
3.760750e-02
4.046090e-02
4.301540e-02
3.170180e-02
3.483790e-02
3.768630e-02
4.024690e-02
4.251980e-02
3.226050e-02
3.506410e-02
3.761070e-02
3.990030e-02
4.193290e-02
3.267990e-02
3.513380e-02
3.738090e-02
3.942130e-02
4.125500e-02
3.296020e-02
3.504690e-02
3.699670e-02
3.880970e-02
4.048580e-02
4.301540e-02
4.835270e-02
5.293240e-02
5.675460e-02
5.981920e-02
4.251980e-02
4.674010e-02
5.039870e-02
5.349560e-02
5.603070e-02
4.193290e-02
4.526010e-02
4.816030e-02
5.063340e-02
5.267960e-02
4.125500e-02
4.391260e-02
4.621700e-02
4.816810e-02
4.976590e-02
4.048580e-02
4.269770e-02
4.456900e-02
4.609970e-02
4.728970e-02
5.981920e-02
5.677840e-02
5.379360e-02
5.086480e-02
4.799190e-02
5.603070e-02
5.380530e-02
5.144310e-02
4.894420e-02
4.630850e-02
5.267960e-02
5.104320e-02
4.917540e-02
4.707610e-02
4.474550e-02
4.976590e-02
4.849210e-02
4.699040e-02
4.526060e-02
4.330280e-02
4.728970e-02
4.615210e-02
4.488810e-02
4.349750e-02
4.198050e-02
4.799190e-02
4.266770e-02
3.782950e-02
3.347730e-02
2.961120e-02
4.630850e-02
4.170220e-02
3.758240e-02
3.394920e-02
3.080260e-02
4.474550e-02
4.088040e-02
3.744330e-02
3.443400e-02
3.185250e-02
4.330280e-02
4.020250e-02
3.741210e-02
3.493160e-02
3.276100e-02
4.198050e-02
3.966830e-02
3.748880e-02
3.544200e-02
3.352800e-02
2.961120e-02
2.889870e-02
2.819660e-02
2.750470e-02
2.682300e-02
3.080260e-02
2.990640e-02
2.903050e-02
2.817490e-02
2.733960e-02
3.185250e-02
3.075310e-02
2.970690e-02
2.871390e-02
2.777400e-02
3.276100e-02
3.143890e-02
3.022570e-02
2.912150e-02
2.812630e-02
3.352800e-02
3.196370e-02
3.058690e-02
2.939790e-02
2.839640e-02
2.682300e-02
2.595790e-02
2.519920e-02
2.454680e-02
2.400070e-02
2.733960e-02
2.654880e-02
2.584590e-02
2.523060e-02
2.470320e-02
2.777400e-02
2.706110e-02
2.641620e-02
2.583940e-02
2.533060e-02
2.812630e-02
2.749460e-02
2.691020e-02
2.637300e-02
2.588300e-02
2.839640e-02
2.784940e-02
2.732780e-02
2.683140e-02
2.636040e-02
2.400070e-02
2.462710e-02
2.494400e-02
2.495150e-02
2.464950e-02
2.470320e-02
2.502900e-02
2.516200e-02
2.510200e-02
2.484910e-02
2.533060e-02
2.538950e-02
2.536200e-02
2.524810e-02
2.504770e-02
2.588300e-02
2.570860e-02
2.554420e-02
2.538970e-02
2.524530e-02
2.636040e-02
2.598620e-02
2.570840e-02
2.552690e-02
2.544170e-02
2.600690e-02
2.603660e-02
2.616240e-02
2.638450e-02
2.670280e-02
2.630990e-02
2.637600e-02
2.652550e-02
2.675840e-02
2.707480e-02
2.659390e-02
2.669240e-02
2.686220e-02
2.710350e-02
2.741620e-02
2.685910e-02
2.698570e-02
2.717260e-02
2.741970e-02
2.772710e-02
2.710540e-02
2.725610e-02
2.745660e-02
2.770710e-02
2.800740e-02
2.670280e-02
2.697550e-02
2.736270e-02
2.786460e-02
2.848100e-02
2.707480e-02
2.739320e-02
2.780660e-02
2.831490e-02
2.891800e-02
2.741620e-02
2.776740e-02
2.819640e-02
2.870340e-02
2.928820e-02
2.772710e-02
2.809790e-02
2.853220e-02
2.903020e-02
2.959170e-02
2.800740e-02
2.838470e-02
2.881400e-02
2.929520e-02
2.982830e-02
2.848100e-02
2.958740e-02
3.070270e-02
3.182700e-02
3.296020e-02
2.891800e-02
2.996510e-02
3.101490e-02
3.206750e-02
3.312300e-02
2.928820e-02
3.027520e-02
3.125870e-02
3.223850e-02
3.321480e-02
2.959170e-02
3.051790e-02
3.143400e-02
3.234000e-02
3.323580e-02
2.982830e-02
3.069310e-02
3.154090e-02
3.237180e-02
3.318580e-02
3.296020e-02
3.504690e-02
3.699670e-02
3.880970e-02
4.048580e-02
3.312300e-02
3.497150e-02
3.669470e-02
3.829240e-02
3.976480e-02
3.321480e-02
3.484480e-02
3.635930e-02
3.775830e-02
3.904190e-02
3.323580e-02
3.466670e-02
3.599060e-02
3.720740e-02
3.831720e-02
3.318580e-02
3.443730e-02
3.558860e-02
3.663970e-02
3.759060e-02
4.048580e-02
4.269770e-02
4.456900e-02
4.609970e-02
4.728970e-02
3.976480e-02
4.160310e-02
4.313600e-02
4.436350e-02
4.528560e-02
3.904190e-02
4.054410e-02
4.178220e-02
4.275600e-02
4.346570e-02
3.831720e-02
3.952080e-02
4.050740e-02
4.127720e-02
4.183000e-02
3.759060e-02
3.853300e-02
3.931180e-02
3.992700e-02
4.037860e-02
4.728970e-02
4.615210e-02
4.488810e-02
4.349750e-02
4.198050e-02
4.528560e-02
4.428140e-02
4.316710e-02
4.194260e-02
4.060790e-02
4.346570e-02
4.263020e-02
4.169200e-02
4.065130e-02
3.950800e-02
4.183000e-02
4.119830e-02
4.046290e-02
3.962380e-02
3.868090e-02
4.037860e-02
3.998590e-02
3.947970e-02
3.885990e-02
3.812660e-02
4.198050e-02
3.966830e-02
3.748880e-02
3.544200e-02
3.352800e-02
4.060790e-02
3.862730e-02
3.677680e-02
3.505610e-02
3.346550e-02
3.950800e-02
3.780970e-02
3.622780e-02
3.476230e-02
3.341320e-02
3.868090e-02
3.721530e-02
3.584180e-02
3.456050e-02
3.337120e-02
3.812660e-02
3.684430e-02
3.561890e-02
3.445070e-02
3.333950e-02
3.352800e-02
3.196370e-02
3.058690e-02
2.939790e-02
2.839640e-02
3.346550e-02
3.209140e-02
3.085290e-02
2.975020e-02
2.878320e-02
3.341320e-02
3.218750e-02
3.106200e-02
3.003660e-02
2.911140e-02
3.337120e-02
3.225210e-02
3.121400e-02
3.025700e-02
2.938100e-02
3.333950e-02
3.228520e-02
3.130910e-02
3.041140e-02
2.959190e-02
2.839640e-02
2.784940e-02
2.732780e-02
2.683140e-02
2.636040e-02
2.878320e-02
2.821090e-02
2.766990e-02
2.716040e-02
2.668230e-02
2.911140e-02
2.851790e-02
2.796030e-02
2.743890e-02
2.695340e-02
2.938100e-02
2.877050e-02
2.819910e-02
2.766690e-02
2.717380e-02
2.959190e-02
2.896860e-02
2.838620e-02
2.784450e-02
2.734360e-02
2.636040e-02
2.598620e-02
2.570840e-02
2.552690e-02
2.544170e-02
2.668230e-02
2.629150e-02
2.598270e-02
2.575590e-02
2.561110e-02
2.695340e-02
2.655910e-02
2.623010e-02
2.596630e-02
2.576790e-02
2.717380e-02
2.678890e-02
2.645030e-02
2.615810e-02
2.591220e-02
2.734360e-02
2.698100e-02
2.664350e-02
2.633120e-02
2.604390e-02
2.710540e-02
2.725610e-02
2.745660e-02
2.770710e-02
2.800740e-02
2.733260e-02
2.749750e-02
2.770550e-02
2.795670e-02
2.825110e-02
2.754220e-02
2.771860e-02
2.793170e-02
2.818140e-02
2.846780e-02
2.773410e-02
2.791940e-02
2.813500e-02
2.838110e-02
2.865770e-02