<?xml version="1.0"?>
<VTKFile type="UnstructuredGrid" version="0.1" byte_order="LittleEndian" compressor="vtkZLibDataCompressor">
<UnstructuredGrid>
<Piece NumberOfPoints="2500" NumberOfCells="1600">
<Points>
<DataArray type="Float32" NumberOfComponents="3" format="ascii">
-3.630000e+00 0.000000e+00 0.000000e+00
-3.448500e+00 0.000000e+00 0.000000e+00
-3.267000e+00 0.000000e+00 0.000000e+00
-3.085500e+00 0.000000e+00 0.000000e+00
-2.904000e+00 0.000000e+00 0.000000e+00
-3.630000e+00 1.282500e-01 0.000000e+00
-3.448500e+00 1.282500e-01 0.000000e+00
-3.267000e+00 1.282500e-01 0.000000e+00
-3.085500e+00 1.282500e-01 0.000000e+00
-2.904000e+00 1.282500e-01 0.000000e+00
-3.630000e+00 2.565000e-01 0.000000e+00
-3.448500e+00 2.565000e-01 0.000000e+00
-3.267000e+00 2.565000e-01 0.000000e+00
-3.085500e+00 2.565000e-01 0.000000e+00
-2.904000e+00 2.565000e-01 0.000000e+00
-3.630000e+00 3.847500e-01 0.000000e+00
-3.448500e+00 3.847500e-01 0.000000e+00
-3.267000e+00 3.847500e-01 0.000000e+00
-3.085500e+00 3.847500e-01 0.000000e+00
-2.904000e+00 3.847500e-01 0.000000e+00
-3.630000e+00 5.130000e-01 0.000000e+00
-3.448500e+00 5.130000e-01 0.000000e+00
-3.267000e+00 5.130000e-01 0.000000e+00
-3.085500e+00 5.130000e-01 0.000000e+00
-2.904000e+00 5.130000e-01 0.000000e+00
-2.904000e+00 0.000000e+00 0.000000e+00
-2.722500e+00 0.000000e+00 0.000000e+00
-2.541000e+00 0.000000e+00 0.000000e+00
-2.359500e+00 0.000000e+00 0.000000e+00
-2.178000e+00 0.000000e+00 0.000000e+00
-2.904000e+00 1.282500e-01 0.000000e+00
-2.722500e+00 1.282500e-01 0.000000e+00
-2.541000e+00 1.282500e-01 0.000000e+00
-2.359500e+00 1.282500e-01 0.000000e+00
-2.178000e+00 1.282500e-01 0.000000e+00
-2.904000e+00 2.565000e-01 0.000000e+00
-2.722500e+00 2.565000e-01 0.000000e+00
-2.541000e+00 2.565000e-01 0.000000e+00
-2.359500e+00 2.565000e-01 0.000000e+00
-2.178000e+00 2.565000e-01 0.000000e+00
-2.904000e+00 3.847500e-01 0.000000e+00
-2.722500e+00 3.847500e-01 0.000000e+00
-2.541000e+00 3.847500e-01 0.000000e+00
-2.359500e+00 3.847500e-01 0.000000e+00
-2.178000e+00 3.847500e-01 0.000000e+00
-2.904000e+00 5.130000e-01 0.000000e+00
-2.722500e+00 5.130000e-01 0.000000e+00
-2.541000e+00 5.130000e-01 0.000000e+00
-2.359500e+00 5.130000e-01 0.000000e+00
-2.178000e+00 5.130000e-01 0.000000e+00
-2.178000e+00 0.000000e+00 0.000000e+00
-1.996500e+00 0.000000e+00 0.000000e+00
-1.815000e+00 0.000000e+00 0.000000e+00
-1.633500e+00 0.000000e+00 0.000000e+00
-1.452000e+00 0.000000e+00 0.000000e+00
-2.178000e+00 1.282500e-01 0.000000e+00
-1.996500e+00 1.282500e-01 0.000000e+00
-1.815000e+00 1.282500e-01 0.000000e+00
-1.633500e+00 1.282500e-01 0.000000e+00
-1.452000e+00 1.282500e-01 0.000000e+00
-2.178000e+00 2.565000e-01 0.000000e+00
-1.996500e+00 2.565000e-01 0.000000e+00
-1.815000e+00 2.565000e-01 0.000000e+00
-1.633500e+00 2.565000e-01 0.000000e+00
-1.452000e+00 2.565000e-01 0.000000e+00
-2.178000e+00 3.847500e-01 0.000000e+00
-1.996500e+00 3.847500e-01 0.000000e+00
-1.815000e+00 3.847500e-01 0.000000e+00
-1.633500e+00 3.847500e-01 0.000000e+00
-1.452000e+00 3.847500e-01 0.000000e+00
-2.178000e+00 5.130000e-01 0.000000e+00
-1.996500e+00 5.130000e-01 0.000000e+00
-1.815000e+00 5.130000e-01 0.000000e+00
-1.633500e+00 5.130000e-01 0.000000e+00
-1.452000e+00 5.130000e-01 0.000000e+00
-1.452000e+00 0.000000e+00 0.000000e+00
-1.270500e+00 0.000000e+00 0.000000e+00
-1.089000e+00 0.000000e+00 0.000000e+00
-9.075000e-01 0.000000e+00 0.000000e+00
-7.260000e-01 0.000000e+00 0.000000e+00
-1.452000e+00 1.282500e-01 0.000000e+00
-1.270500e+00 1.282500e-01 0.000000e+00
-1.089000e+00 1.282500e-01 0.000000e+00
-9.075000e-01 1.282500e-01 0.000000e+00
-7.260000e-01 1.282500e-01 0.000000e+00
-1.452000e+00 2.565000e-01 0.000000e+00
-1.270500e+00 2.565000e-01 0.000000e+00
-1.089000e+00 2.565000e-01 0.000000e+00
-9.075000e-01 2.565000e-01 0.000000e+00
-7.260000e-01 2.565000e-01 0.000000e+00
-1.452000e+00 3.847500e-01 0.000000e+00
-1.270500e+00 3.847500e-01 0.000000e+00
-1.089000e+00 3.847500e-01 0.000000e+00
-9.075000e-01 3.847500e-01 0.000000e+00
-7.260000e-01 3.847500e-01 0.000000e+00
-1.452000e+00 5.130000e-01 0.000000e+00
-1.270500e+00 5.130000e-01 0.000000e+00
-1.089000e+00 5.130000e-01 0.000000e+00
-9.075000e-01 5.130000e-01 0.000000e+00
-7.260000e-01 5.130000e-01 0.000000e+00
-7.260000e-01 0.000000e+00 0.000000e+00
-5.445000e-01 0.000000e+00 0.000000e+00
-3.630000e-01 0.000000e+00 0.000000e+00
-1.815000e-01 0.000000e+00 0.000000e+00
0.000000e+00 0.000000e+00 0.000000e+00
-7.260000e-01 1.282500e-01 0.000000e+00
-5.445000e-01 1.282500e-01 0.000000e+00
-3.630000e-01 1.282500e-01 0.000000e+00
-1.815000e-01 1.282500e-01 0.000000e+00
0.000000e+00 1.282500e-01 0.000000e+00
-7.260000e-01 2.565000e-01 0.000000e+00
-5.445000e-01 2.565000e-01 0.000000e+00
-3.630000e-01 2.565000e-01 0.000000e+00
-1.815000e-01 2.565000e-01 0.000000e+00
0.000000e+00 2.565000e-01 0.000000e+00
-7.260000e-01 3.847500e-01 0.000000e+00
-5.445000e-01 3.847500e-01 0.000000e+00
-3.630000e-01 3.847500e-01 0.000000e+00
-1.815000e-01 3.847500e-01 0.000000e+00
0.000000e+00 3.847500e-01 0.000000e+00
-7.260000e-01 5.130000e-01 0.000000e+00
-5.445000e-01 5.130000e-01 0.000000e+00
-3.630000e-01 5.130000e-01 0.000000e+00
-1.815000e-01 5.130000e-01 0.000000e+00
0.000000e+00 5.130000e-01 0.000000e+00
0.000000e+00 0.000000e+00 0.000000e+00
1.815000e-01 0.000000e+00 0.000000e+00
3.630000e-01 0.000000e+00 0.000000e+00
5.445000e-01 0.000000e+00 0.000000e+00
7.260000e-01 0.000000e+00 0.000000e+00
0.000000e+00 1.282500e-01 0.000000e+00
1.815000e-01 1.282500e-01 0.000000e+00
3.630000e-01 1.282500e-01 0.000000e+00
5.445000e-01 1.282500e-01 0.000000e+00
7.260000e-01 1.282500e-01 0.000000e+00
0.000000e+00 2.565000e-01 0.000000e+00
1.815000e-01 2.565000e-01 0.000000e+00
3.630000e-01 2.565000e-01 0.000000e+00
5.445000e-01 2.565000e-01 0.000000e+00
7.260000e-01 2.565000e-01 0.000000e+00
0.000000e+00 3.847500e-01 0.000000e+00
1.815000e-01 3.847500e-01 0.000000e+00
3.630000e-01 3.847500e-01 0.000000e+00
5.445000e-01 3.847500e-01 0.000000e+00
7.260000e-01 3.847500e-01 0.000000e+00
0.000000e+00 5.130000e-01 0.000000e+00
1.815000e-01 5.130000e-01 0.000000e+00
3.630000e-01 5.130000e-01 0.000000e+00
5.445000e-01 5.130000e-01 0.000000e+00
7.260000e-01 5.130000e-01 0.000000e+00
7.260000e-01 0.000000e+00 0.000000e+00
9.075000e-01 0.000000e+00 0.000000e+00
1.089000e+00 0.000000e+00 0.000000e+00
1.270500e+00 0.000000e+00 0.000000e+00
1.452000e+00 0.000000e+00 0.000000e+00
7.260000e-01 1.282500e-01 0.000000e+00
9.075000e-01 1.282500e-01 0.000000e+00
1.089000e+00 1.282500e-01 0.000000e+00
1.270500e+00 1.282500e-01 0.000000e+00
1.452000e+00 1.282500e-01 0.000000e+00
7.260000e-01 2.565000e-01 0.000000e+00
9.075000e-01 2.565000e-01 0.000000e+00
1.089000e+00 2.565000e-01 0.000000e+00
1.270500e+00 2.565000e-01 0.000000e+00
1.452000e+00 2.565000e-01 0.000000e+00
7.260000e-01 3.847500e-01 0.000000e+00
9.075000e-01 3.847500e-01 0.000000e+00
1.089000e+00 3.847500e-01 0.000000e+00
1.270500e+00 3.847500e-01 0.000000e+00
1.452000e+00 3.847500e-01 0.000000e+00
7.260000e-01 5.130000e-01 0.000000e+00
9.075000e-01 5.130000e-01 0.000000e+00
1.089000e+00 5.130000e-01 0.000000e+00
1.270500e+00 5.130000e-01 0.000000e+00
1.452000e+00 5.130000e-01 0.000000e+00
1.452000e+00 0.000000e+00 0.000000e+00
1.633500e+00 0.000000e+00 0.000000e+00
1.815000e+00 0.000000e+00 0.000000e+00
1.996500e+00 0.000000e+00 0.000000e+00
2.178000e+00 0.000000e+00 0.000000e+00
1.452000e+00 1.282500e-01 0.000000e+00
1.633500e+00 1.282500e-01 0.000000e+00
1.815000e+00 1.282500e-01 0.000000e+00
1.996500e+00 1.282500e-01 0.000000e+00
2.178000e+00 1.282500e-01 0.000000e+00
1.452000e+00 2.565000e-01 0.000000e+00
1.633500e+00 2.565000e-01 0.000000e+00
1.815000e+00 2.565000e-01 0.000000e+00
1.996500e+00 2.565000e-01 0.000000e+00
2.178000e+00 2.565000e-01 0.000000e+00
1.452000e+00 3.847500e-01 0.000000e+00
1.633500e+00 3.847500e-01 0.000000e+00
1.815000e+00 3.847500e-01 0.000000e+00
1.996500e+00 3.847500e-01 0.000000e+00
2.178000e+00 3.847500e-01 0.000000e+00
1.452000e+00 5.130000e-01 0.000000e+00
1.633500e+00 5.130000e-01 0.000000e+00
1.815000e+00 5.130000e-01 0.000000e+00
1.996500e+00 5.130000e-01 0.000000e+00
2.178000e+00 5.130000e-01 0.000000e+00
2.178000e+00 0.000000e+00 0.000000e+00
2.359500e+00 0.000000e+00 0.000000e+00
2.541000e+00 0.000000e+00 0.000000e+00
2.722500e+00 0.000000e+00 0.000000e+00
2.904000e+00 0.000000e+00 0.000000e+00
2.178000e+00 1.282500e-01 0.000000e+00
2.359500e+00 1.282500e-01 0.000000e+00
2.541000e+00 1.282500e-01 0.000000e+00
2.722500e+00 1.282500e-01 0.000000e+00
2.904000e+00 1.282500e-01 0.000000e+00
2.178000e+00 2.565000e-01 0.000000e+00
2.359500e+00 2.565000e-01 0.000000e+00
2.541000e+00 2.565000e-01 0.000000e+00
2.722500e+00 2.565000e-01 0.000000e+00
2.904000e+00 2.565000e-01 0.000000e+00
2.178000e+00 3.847500e-01 0.000000e+00
2.359500e+00 3.847500e-01 0.000000e+00
2.541000e+00 3.847500e-01 0.000000e+00
2.722500e+00 3.847500e-01 0.000000e+00
2.904000e+00 3.847500e-01 0.000000e+00
2.178000e+00 5.130000e-01 0.000000e+00
2.359500e+00 5.130000e-01 0.000000e+00
2.541000e+00 5.130000e-01 0.000000e+00
2.722500e+00 5.130000e-01 0.000000e+00
2.904000e+00 5.130000e-01 0.000000e+00
2.904000e+00 0.000000e+00 0.000000e+00
3.085500e+00 0.000000e+00 0.000000e+00
3.267000e+00 0.000000e+00 0.000000e+00
3.448500e+00 0.000000e+00 0.000000e+00
3.630000e+00 0.000000e+00 0.000000e+00
2.904000e+00 1.282500e-01 0.000000e+00
3.085500e+00 1.282500e-01 0.000000e+00
3.267000e+00 1.282500e-01 0.000000e+00
3.448500e+00 1.282500e-01 0.000000e+00
3.630000e+00 1.282500e-01 0.000000e+00
2.904000e+00 2.565000e-01 0.000000e+00
3.085500e+00 2.565000e-01 0.000000e+00
3.267000e+00 2.565000e-01 0.000000e+00
3.448500e+00 2.565000e-01 0.000000e+00
3.630000e+00 2.565000e-01 0.000000e+00
2.904000e+00 3.847500e-01 0.000000e+00
3.085500e+00 3.847500e-01 0.000000e+00
3.267000e+00 3.847500e-01 0.000000e+00
3.448500e+00 3.847500e-01 0.000000e+00
3.630000e+00 3.847500e-01 0.000000e+00
2.904000e+00 5.130000e-01 0.000000e+00
[...]
<PointData>
<DataArray type="Float32" Name="V1" format="ascii">
0.000000e+00
0.000000e+00
0.000000e+00
0.000000e+00
0.000000e+00
1.264110e-02
1.103350e-02
9.646740e-03
8.480710e-03
7.535450e-03
2.028400e-02
1.822640e-02
1.638780e-02
1.476810e-02
1.336730e-02
2.292870e-02
2.157860e-02
2.022310e-02
1.886210e-02
1.749560e-02
2.057510e-02
2.109020e-02
2.115270e-02
2.076280e-02
1.992020e-02
0.000000e+00
0.000000e+00
0.000000e+00
0.000000e+00
0.000000e+00
7.535450e-03
6.469580e-03
5.642730e-03
5.054900e-03
4.706090e-03
1.336730e-02
1.178060e-02
1.051340e-02
9.565810e-03
8.937790e-03
1.749560e-02
1.593300e-02
1.461200e-02
1.353270e-02
1.269510e-02
1.992020e-02
1.892680e-02
1.793860e-02
1.695570e-02
1.597800e-02
0.000000e+00
0.000000e+00
0.000000e+00
0.000000e+00
0.000000e+00
4.706090e-03
4.430690e-03
4.232030e-03
4.110120e-03
4.064960e-03
8.937790e-03
8.422090e-03
8.035300e-03
7.777420e-03
7.648450e-03
1.269510e-02
1.197420e-02
1.140980e-02
1.100190e-02
1.075050e-02
1.597800e-02
1.508700e-02
1.435550e-02
1.378350e-02
1.337100e-02
0.000000e+00
0.000000e+00
0.000000e+00
0.000000e+00
0.000000e+00
4.064960e-03
3.853050e-03
4.020380e-03
4.566970e-03
5.492790e-03
7.648450e-03
7.144580e-03
7.300320e-03
8.115650e-03
9.590590e-03
1.075050e-02
9.874590e-03
9.839800e-03
1.064610e-02
1.229340e-02
1.337100e-02
1.204310e-02
1.163880e-02
1.215820e-02
1.360120e-02
0.000000e+00
0.000000e+00
0.000000e+00
0.000000e+00
0.000000e+00
5.492790e-03
5.231410e-03
4.114920e-03
2.143330e-03
-6.833690e-04
9.590590e-03
8.757210e-03
6.486210e-03
2.777590e-03
-2.368650e-03
1.229340e-02
1.057740e-02
7.113850e-03
1.902770e-03
-5.055840e-03
1.360120e-02
1.069200e-02
5.997860e-03
-4.811140e-04
-8.744950e-03
0.000000e+00
0.000000e+00
0.000000e+00
0.000000e+00
0.000000e+00
-6.833690e-04
-2.428900e-03
-5.001550e-03
-8.401320e-03
-1.262820e-02
-2.368650e-03
-5.402850e-03
-9.640120e-03
-1.508050e-02
-2.172390e-02
-5.055840e-03
-8.921860e-03
-1.391570e-02
-2.003740e-02
-2.728700e-02
-8.744950e-03
-1.298590e-02
-1.782840e-02
-2.327220e-02
-2.931750e-02
0.000000e+00
0.000000e+00
0.000000e+00
0.000000e+00
0.000000e+00
-1.262820e-02
-1.314490e-02
-1.267280e-02
-1.121200e-02
-8.762450e-03
-2.172390e-02
-2.201420e-02
-2.083810e-02
-1.819570e-02
-1.408700e-02
-2.728700e-02
-2.660780e-02
-2.449580e-02
-2.095120e-02
-1.597380e-02
-2.931750e-02
-2.692580e-02
-2.364600e-02
-1.947830e-02
-1.442260e-02
0.000000e+00
0.000000e+00
0.000000e+00
0.000000e+00
0.000000e+00
-8.762450e-03
-7.754850e-03
-6.225160e-03
-4.173380e-03
-1.599520e-03
-1.408700e-02
-1.233060e-02
-9.762060e-03
-6.381440e-03
-2.188740e-03
-1.597380e-02
-1.372720e-02
-1.061070e-02
-6.624170e-03
-1.767670e-03
-1.442260e-02
-1.194470e-02
-8.771040e-03
-4.901560e-03
-3.363140e-04
0.000000e+00
0.000000e+00
0.000000e+00
0.000000e+00
0.000000e+00
-1.599520e-03
5.548700e-04
2.337920e-03
3.749620e-03
4.789990e-03
-2.188740e-03
1.415800e-03
4.400140e-03
6.764290e-03
8.508240e-03
-1.767670e-03
2.582790e-03
6.186680e-03
9.044000e-03
1.115480e-02
-3.363140e-04
4.055840e-03
7.697540e-03
1.058880e-02
1.272950e-02
0.000000e+00
0.000000e+00
0.000000e+00
0.000000e+00
0.000000e+00
4.789990e-03
5.841250e-03
6.787630e-03
7.629110e-03
8.365710e-03
8.508240e-03
1.029010e-02
1.188100e-02
1.328060e-02
1.448920e-02
1.115480e-02
1.334670e-02
1.528000e-02
1.695460e-02
1.837060e-02
1.272950e-02
1.501090e-02
1.698470e-02
1.865100e-02
2.000970e-02
2.057510e-02
2.109020e-02
2.115270e-02
2.076280e-02
1.992020e-02
2.078850e-02
2.098030e-02
2.100180e-02
2.085310e-02
2.053410e-02
2.103660e-02
2.097110e-02
2.092230e-02
2.089000e-02
2.087440e-02
2.131930e-02
2.106270e-02
2.091420e-02
2.087370e-02
2.094120e-02
2.163650e-02
2.125490e-02
2.097740e-02
2.080400e-02
2.073460e-02
1.992020e-02
1.892680e-02
1.793860e-02
1.695570e-02
1.597800e-02
2.053410e-02
2.004310e-02
1.947670e-02
1.883510e-02
1.811810e-02
2.087440e-02
2.074380e-02
2.049750e-02
2.013550e-02
1.965770e-02
2.094120e-02
2.102900e-02
2.100090e-02
2.085690e-02
2.059700e-02
2.073460e-02
2.089860e-02
2.098690e-02
2.099920e-02
2.093580e-02
1.597800e-02
1.508700e-02
1.435550e-02
1.378350e-02
1.337100e-02
1.811810e-02
1.728260e-02
1.656210e-02
1.595650e-02
1.546590e-02
1.965770e-02
1.890130e-02
1.823270e-02
1.765190e-02
1.715900e-02
2.059700e-02
1.994300e-02
1.936720e-02
1.886960e-02
1.845020e-02
2.093580e-02
2.040780e-02
1.996580e-02
1.960970e-02
1.933960e-02
1.337100e-02
1.204310e-02
1.163880e-02
1.215820e-02
1.360120e-02
1.546590e-02
1.357410e-02
1.283280e-02
1.324210e-02
1.480180e-02
1.715900e-02
1.480620e-02
1.381360e-02
1.418120e-02
1.590890e-02
1.845020e-02
1.573930e-02
1.458110e-02
1.497550e-02
1.692240e-02
1.933960e-02
1.637360e-02
1.513540e-02
1.562500e-02
1.784240e-02
1.360120e-02
1.069200e-02
5.997860e-03
-4.811140e-04
-8.744950e-03
1.480180e-02
1.067820e-02
5.152070e-03
-1.776590e-03
-1.010780e-02
1.590890e-02
1.097920e-02
4.992260e-03
-2.052010e-03
-1.015360e-02
1.692240e-02
1.159500e-02
5.518420e-03
-1.307370e-03
-8.882360e-03
1.784240e-02
1.252560e-02
6.730560e-03
4.573140e-04
-6.294140e-03
-8.744950e-03
-1.298590e-02
-1.782840e-02
-2.327220e-02
-2.931750e-02
-1.010780e-02
-1.287790e-02
-1.688270e-02
-2.212210e-02
-2.859620e-02
-1.015360e-02
-1.113040e-02
-1.406060e-02
-1.894430e-02
-2.578140e-02
-8.882360e-03
-7.743410e-03
-9.362200e-03
-1.373870e-02
-2.087300e-02
-6.294140e-03
-2.716960e-03
-2.787400e-03
-6.505450e-03
-1.387110e-02
-2.931750e-02
-2.692580e-02
-2.364600e-02
-1.947830e-02
-1.442260e-02
-2.859620e-02
-2.642770e-02
-2.316470e-02
-1.880710e-02
-1.335510e-02
-2.578140e-02
-2.415810e-02
-2.112620e-02
-1.668580e-02
-1.083680e-02
-2.087300e-02
-2.011680e-02
-1.753060e-02
-1.311430e-02
-6.868000e-03
-1.387110e-02
-1.430400e-02
-1.237780e-02
-8.092690e-03
-1.448530e-03
-1.442260e-02
-1.194470e-02
-8.771040e-03
-4.901560e-03
-3.363140e-04
-1.335510e-02
-1.143970e-02
-8.533460e-03
-4.636320e-03
2.516980e-04
-1.083680e-02
-9.556110e-03
-7.101440e-03
-3.472800e-03
1.329780e-03
-6.868000e-03
-6.293970e-03
-4.474970e-03
-1.411000e-03
2.897940e-03
-1.448530e-03
-1.653270e-03
-6.540630e-04
1.549080e-03
4.956170e-03
-3.363140e-04
4.055840e-03
7.697540e-03
1.058880e-02
1.272950e-02
2.516980e-04
5.094960e-03
8.979880e-03
1.190650e-02
1.387470e-02
1.329780e-03
6.422120e-03
1.039210e-02
1.323960e-02
1.496470e-02
2.897940e-03
8.037330e-03
1.193410e-02
1.458820e-02
1.599970e-02
4.956170e-03
9.940570e-03
1.360590e-02
1.595230e-02
1.697960e-02
1.272950e-02
1.501090e-02
1.698470e-02
1.865100e-02
2.000970e-02
1.387470e-02
1.596680e-02
1.784530e-02
1.951030e-02
2.096160e-02
1.496470e-02
1.682060e-02
1.855110e-02
2.015630e-02
2.163600e-02
1.599970e-02
1.757230e-02
1.910210e-02
2.058890e-02
2.203290e-02
1.697960e-02
1.822190e-02
1.949810e-02
2.080830e-02
2.215230e-02
2.163650e-02
2.125490e-02
2.097740e-02
2.080400e-02
2.073460e-02
2.197900e-02
2.160130e-02
2.131200e-02
2.111110e-02
2.099850e-02
2.233590e-02
2.198570e-02
2.170580e-02
2.149620e-02
2.135690e-02
2.270730e-02
2.240820e-02
2.215890e-02
2.195940e-02
2.180970e-02
2.309330e-02
2.286880e-02
2.267120e-02
2.250060e-02
2.235700e-02
2.073460e-02
2.089860e-02
2.098690e-02
2.099920e-02
2.093580e-02
2.099850e-02
2.106560e-02
2.111560e-02
2.114840e-02
2.116400e-02
2.135690e-02
2.133630e-02
2.134280e-02
2.137660e-02
2.143760e-02
2.180970e-02
2.171060e-02
2.166870e-02
2.168400e-02
2.175650e-02
2.235700e-02
2.218870e-02
2.209320e-02
2.207050e-02
2.212060e-02
2.093580e-02
2.040780e-02
1.996580e-02
1.960970e-02
1.933960e-02
2.116400e-02
2.065930e-02
2.029840e-02
2.008130e-02
2.000810e-02
2.143760e-02
2.093750e-02
2.063420e-02
2.052780e-02
2.061820e-02
2.175650e-02
2.124250e-02
2.097340e-02
2.094920e-02
2.116990e-02
2.212060e-02
2.157420e-02
2.131590e-02
2.134550e-02
2.166320e-02
1.933960e-02
1.637360e-02
1.513540e-02
1.562500e-02
1.784240e-02
2.000810e-02
1.703770e-02
1.583040e-02
1.638620e-02
1.870500e-02
2.061820e-02
1.776220e-02
1.663480e-02
1.723610e-02
1.956610e-02
2.116990e-02
1.854690e-02
1.754860e-02
1.817480e-02
2.042580e-02
2.166320e-02
1.939200e-02
1.857170e-02
1.920240e-02
2.128390e-02
1.784240e-02
1.252560e-02
6.730560e-03
4.573140e-04
-6.294140e-03
1.870500e-02
1.415320e-02
9.070860e-03
3.457910e-03
-2.685620e-03
1.956610e-02
1.606920e-02
1.185810e-02
6.932980e-03
1.293730e-03
2.042580e-02
1.827350e-02
1.509240e-02
1.088250e-02
5.643920e-03
2.128390e-02
2.076610e-02
1.877360e-02
1.530660e-02
1.036490e-02
-6.294140e-03
-2.716960e-03
-2.787400e-03
-6.505450e-03
-1.387110e-02
-2.685620e-03
2.779970e-03
4.203550e-03
1.585110e-03
-5.075340e-03
1.293730e-03
8.037270e-03
1.072410e-02
9.354070e-03
3.927330e-03
5.643920e-03
1.305490e-02
1.677410e-02
1.680140e-02
1.313690e-02
1.036490e-02
1.783300e-02
2.235370e-02
2.392720e-02
2.255330e-02
-1.387110e-02
-1.430400e-02
-1.237780e-02
-8.092690e-03
-1.448530e-03
-5.075340e-03
-6.840550e-03
-5.831480e-03
-2.048130e-03
4.509500e-03
3.927330e-03
1.428640e-03
1.772030e-03
4.957500e-03
1.098510e-02
1.313690e-02
1.050360e-02
1.043270e-02
1.292420e-02
1.797810e-02
2.255330e-02
2.038430e-02
2.015050e-02
2.185200e-02
2.548870e-02
-1.448530e-03
-1.653270e-03
-6.540630e-04
1.549080e-03
4.956170e-03
4.509500e-03
3.655320e-03
3.871140e-03
5.156970e-03
7.512800e-03
1.098510e-02
9.440830e-03
8.851390e-03
9.216750e-03
1.053690e-02
1.797810e-02
1.570330e-02
1.428670e-02
1.372840e-02
1.402850e-02
2.548870e-02
2.244260e-02
2.017700e-02
1.869200e-02
1.798750e-02
4.956170e-03
9.940570e-03
1.360590e-02
1.595230e-02
1.697960e-02
7.512800e-03
1.210800e-02
1.538530e-02
1.734470e-02
1.798630e-02
1.053690e-02
1.453820e-02
1.727780e-02
1.875550e-02
1.897140e-02
1.402850e-02
1.723140e-02
1.928340e-02
2.018450e-02
1.993470e-02
1.798750e-02
2.018740e-02
2.140220e-02
2.163190e-02
2.087640e-02
1.697960e-02
1.822190e-02
1.949810e-02
2.080830e-02
2.215230e-02
1.798630e-02
1.915240e-02
2.027770e-02
2.136230e-02
2.240610e-02
1.897140e-02
2.007750e-02
2.106570e-02
2.193610e-02
2.268850e-02
1.993470e-02
2.099720e-02
2.186220e-02
2.252970e-02
2.299960e-02
2.087640e-02
2.191160e-02
2.266710e-02
2.314300e-02
2.333920e-02
2.309330e-02
2.286880e-02
2.267120e-02
2.250060e-02
2.235700e-02
2.348320e-02
2.330430e-02
2.314550e-02
2.300670e-02
2.288800e-02
2.386930e-02
2.373190e-02
2.360790e-02
2.349760e-02
2.340090e-02
2.425160e-02
2.415130e-02
2.405850e-02
2.397330e-02
2.389560e-02
2.463000e-02
2.456270e-02
2.449730e-02
2.443380e-02
2.437210e-02
2.235700e-02
2.218870e-02
2.209320e-02
2.207050e-02
2.212060e-02
2.288800e-02
2.271340e-02
2.260160e-02
2.255240e-02
2.256600e-02
2.340090e-02
2.323070e-02
2.311280e-02
2.304720e-02
2.303400e-02
2.389560e-02
2.374050e-02
2.362700e-02
2.355500e-02
2.352450e-02
2.437210e-02
2.424290e-02
2.414400e-02
2.407560e-02
2.403750e-02
2.212060e-02
2.157420e-02
2.131590e-02
2.134550e-02
2.166320e-02
2.256600e-02
2.207190e-02
2.182740e-02
2.183230e-02
2.208670e-02
2.303400e-02
2.260510e-02
2.238500e-02
2.237370e-02
2.257110e-02
2.352450e-02
2.317360e-02
2.298870e-02
2.296960e-02
2.311650e-02
2.403750e-02
2.377760e-02
2.363850e-02
2.362020e-02
2.372270e-02
2.166320e-02
1.939200e-02
1.857170e-02
1.920240e-02
2.128390e-02
2.208670e-02
2.042620e-02
1.982050e-02
2.026960e-02
2.177340e-02
2.257110e-02
2.145270e-02
2.105670e-02
2.138300e-02
2.243170e-02
2.311650e-02
2.247150e-02
2.228030e-02
2.254280e-02
2.325900e-02
2.372270e-02
2.348260e-02
2.349130e-02
2.374880e-02
2.425510e-02
2.128390e-02
2.076610e-02
1.877360e-02
1.530660e-02
1.036490e-02
2.177340e-02
2.305150e-02
2.261600e-02
2.046670e-02
1.660380e-02
2.243170e-02
2.484420e-02
2.564610e-02
2.483750e-02
2.241830e-02
2.325900e-02
2.614410e-02
2.786400e-02
2.841880e-02
2.780850e-02
2.425510e-02
2.695120e-02
2.926980e-02
3.121080e-02
3.277430e-02
1.036490e-02
1.783300e-02
2.235370e-02
2.392720e-02
2.255330e-02
1.660380e-02
2.307200e-02
2.761400e-02
3.022980e-02
3.091950e-02
2.241830e-02
2.818580e-02
3.272270e-02
3.602900e-02
3.810470e-02
2.780850e-02
3.317440e-02
3.767970e-02
4.132460e-02
4.410890e-02
3.277430e-02
3.803780e-02
4.248520e-02
4.611660e-02
4.893200e-02
2.255330e-02
2.038430e-02
2.015050e-02
2.185200e-02
2.548870e-02
3.091950e-02
2.921290e-02
2.866550e-02
2.927730e-02
3.104840e-02
3.810470e-02
3.671300e-02
3.587660e-02
3.559530e-02
3.586920e-02
4.410890e-02
4.288470e-02
4.178370e-02
4.080590e-02
3.995110e-02
4.893200e-02
4.772800e-02
4.638700e-02
4.490900e-02
4.329410e-02
2.548870e-02
2.244260e-02
2.017700e-02
1.869200e-02
1.798750e-02
3.104840e-02
2.790220e-02
2.536870e-02
2.344770e-02
2.213940e-02
3.586920e-02
3.261200e-02
2.983330e-02
2.753300e-02
2.571110e-02
3.995110e-02
3.657200e-02
3.357090e-02
3.094770e-02
2.870260e-02
4.329410e-02
3.978210e-02
3.658140e-02
3.369200e-02
3.111380e-02
1.798750e-02
2.018740e-02
2.140220e-02
2.163190e-02
2.087640e-02
2.213940e-02
2.300690e-02
2.322060e-02
2.278070e-02
2.168700e-02
2.571110e-02
2.546880e-02
2.486200e-02
2.389080e-02
2.255500e-02
2.870260e-02
2.757320e-02
2.632630e-02
2.496210e-02
2.348050e-02
3.111380e-02
2.932000e-02
2.761360e-02
2.599470e-02
2.446330e-02
2.087640e-02
2.191160e-02
2.266710e-02
2.314300e-02
2.333920e-02
2.168700e-02
2.282390e-02
2.354770e-02
2.385840e-02
2.375600e-02
2.255500e-02
2.372630e-02
2.438000e-02
2.451620e-02
2.413480e-02
2.348050e-02
2.461880e-02
2.516410e-02
2.511640e-02
2.447560e-02
2.446330e-02
2.550140e-02
2.590000e-02
2.565890e-02
2.477830e-02
2.463000e-02
2.456270e-02
2.449730e-02
2.443380e-02
2.437210e-02
2.499690e-02
2.495710e-02
2.491830e-02
2.488030e-02
2.484320e-02
2.534870e-02
2.533580e-02
2.532310e-02
2.531060e-02
2.529830e-02
2.568540e-02
2.569870e-02
2.571180e-02
2.572470e-02
2.573730e-02
2.600690e-02
2.604580e-02
2.608440e-02
2.612250e-02
2.616030e-02
2.437210e-02
2.424290e-02
2.414400e-02
2.407560e-02
2.403750e-02
2.484320e-02
2.472490e-02
2.464170e-02
2.459360e-02
2.458050e-02
2.529830e-02
2.519300e-02
2.512650e-02
2.509890e-02
2.511020e-02
2.573730e-02
2.564710e-02
2.559850e-02
2.559160e-02
2.562640e-02
2.616030e-02
2.608720e-02
2.605760e-02
2.607170e-02
2.612930e-02
2.403750e-02
2.377760e-02
2.363850e-02
2.362020e-02
2.372270e-02
2.458050e-02
2.436160e-02
2.426740e-02
2.429800e-02
2.445340e-02
2.511020e-02
2.493340e-02
2.488090e-02
2.495250e-02
2.514830e-02
2.562640e-02
2.549310e-02
2.547880e-02
2.558360e-02
2.580740e-02
2.612930e-02
2.604070e-02
2.606130e-02
2.619130e-02
2.643060e-02
2.372270e-02
2.348260e-02
2.349130e-02
2.374880e-02
2.425510e-02
2.445340e-02
2.433900e-02
2.447870e-02
2.487260e-02
2.552070e-02
2.514830e-02
2.514420e-02
2.538600e-02
2.587370e-02
2.660720e-02
2.580740e-02
2.589830e-02
2.621320e-02
2.675200e-02
2.751470e-02
2.643060e-02
2.660120e-02
2.696010e-02
2.750740e-02
2.824310e-02
2.425510e-02
2.695120e-02
2.926980e-02
3.121080e-02
3.277430e-02
2.552070e-02
2.757370e-02
2.979810e-02
3.219400e-02
3.476140e-02
2.660720e-02
2.818990e-02
3.023840e-02
3.275270e-02
3.573280e-02
2.751470e-02
2.880000e-02
3.059070e-02
3.288690e-02
3.568860e-02
2.824310e-02
2.940380e-02
3.085500e-02
3.259670e-02
3.462870e-02
3.277430e-02
3.803780e-02
4.248520e-02
4.611660e-02
4.893200e-02
3.476140e-02
4.050800e-02
4.534290e-02
4.926590e-02
5.227720e-02
3.573280e-02
4.146880e-02
4.632020e-02
5.028700e-02
5.336910e-02
3.568860e-02
4.092020e-02
4.541720e-02
4.917970e-02
5.220770e-02
3.462870e-02
3.886210e-02
4.263390e-02
4.594420e-02
4.879300e-02
4.893200e-02
4.772800e-02
4.638700e-02
4.490900e-02
4.329410e-02
5.227720e-02
5.129790e-02
4.987280e-02
4.800180e-02
4.568500e-02
5.336910e-02
5.268920e-02
5.137100e-02
4.941440e-02
4.681940e-02
5.220770e-02
5.190190e-02
5.088150e-02
4.914670e-02
4.669730e-02
4.879300e-02
4.893580e-02
4.840440e-02
4.719870e-02
4.531870e-02
4.329410e-02
3.978210e-02
3.658140e-02
3.369200e-02
3.111380e-02
4.568500e-02
4.175860e-02
3.824830e-02
3.515410e-02
3.247610e-02
4.681940e-02
4.282520e-02
3.927410e-02
3.616620e-02
3.350160e-02
4.669730e-02
4.298180e-02
3.965880e-02
3.672830e-02
3.419020e-02
4.531870e-02
4.222860e-02
3.940250e-02
3.684030e-02
3.454200e-02
3.111380e-02
2.932000e-02
2.761360e-02
2.599470e-02
2.446330e-02
3.247610e-02
3.057230e-02
2.881990e-02
2.721890e-02
2.576940e-02
3.350160e-02
3.155450e-02
2.980860e-02
2.826390e-02
2.692030e-02
3.419020e-02
3.226660e-02
3.057970e-02
2.912950e-02
2.791600e-02
3.454200e-02
3.270860e-02
3.113330e-02
2.981590e-02
2.875650e-02
2.446330e-02
2.550140e-02
2.590000e-02
2.565890e-02
2.477830e-02
2.576940e-02
2.623380e-02
2.629940e-02
2.596610e-02
2.523400e-02
2.692030e-02
2.688240e-02
2.666340e-02
2.626330e-02
2.568220e-02
2.791600e-02
2.744720e-02
2.699200e-02
2.655060e-02
2.612290e-02
2.875650e-02
2.792820e-02
2.728530e-02
2.682800e-02
2.655610e-02
2.600690e-02
2.604580e-02
2.608440e-02
2.612250e-02
2.616030e-02
2.630990e-02
2.637270e-02
2.643430e-02
2.649450e-02
2.655340e-02
2.659390e-02
2.667950e-02
2.676250e-02
2.684300e-02
2.692090e-02
2.685910e-02
2.696610e-02
2.706910e-02
2.716800e-02
2.726290e-02
2.710540e-02
2.723250e-02
2.735390e-02
2.746950e-02
2.757940e-02
2.616030e-02
2.608720e-02
2.605760e-02
2.607170e-02
2.612930e-02
2.655340e-02
2.650770e-02
2.649970e-02
2.652930e-02
2.659660e-02
2.692090e-02
2.690130e-02
2.691390e-02
2.695860e-02
2.703540e-02
2.726290e-02
2.726820e-02
2.730040e-02
2.735960e-02
2.744570e-02
2.757940e-02
2.760820e-02
2.765910e-02
2.773220e-02
2.782760e-02
2.612930e-02
2.604070e-02
2.606130e-02
2.619130e-02
2.643060e-02
2.659660e-02
2.655740e-02
2.660950e-02
2.675290e-02
2.698760e-02
2.703540e-02
2.703760e-02
2.711640e-02
2.727170e-02
2.750350e-02
2.744570e-02
2.748130e-02
2.758180e-02
2.774750e-02
2.797820e-02
2.782760e-02
2.788830e-02
2.800590e-02
2.818040e-02
2.841170e-02
2.643060e-02
2.660120e-02
2.696010e-02
2.750740e-02
2.824310e-02
2.698760e-02
2.722930e-02
2.762210e-02
2.816600e-02
2.886110e-02
2.750350e-02
2.779140e-02
2.820280e-02
2.873750e-02
2.939570e-02
2.797820e-02
2.828760e-02
2.870220e-02
2.922200e-02
2.984690e-02
2.841170e-02
2.871790e-02
2.912040e-02
2.961940e-02
3.021470e-02
2.824310e-02
2.940380e-02
3.085500e-02
3.259670e-02
3.462870e-02
2.886110e-02
2.998500e-02
3.129290e-02
3.278470e-02
3.446050e-02
2.939570e-02
3.047610e-02
3.166350e-02
3.295790e-02
3.435920e-02
2.984690e-02
3.087730e-02
3.196700e-02
3.311620e-02
3.432470e-02
3.021470e-02
3.118840e-02
3.220340e-02
3.325960e-02
3.435700e-02
3.462870e-02
3.886210e-02
4.263390e-02
4.594420e-02
4.879300e-02
3.446050e-02
3.774850e-02
4.072030e-02
4.337580e-02
4.571510e-02
3.435920e-02
3.689000e-02
3.920730e-02
4.131100e-02
4.320130e-02
3.432470e-02
3.628650e-02
3.809490e-02
3.974980e-02
4.125130e-02
3.435700e-02
3.593800e-02
3.738310e-02
3.869220e-02
3.986530e-02
4.879300e-02
4.893580e-02
4.840440e-02
4.719870e-02
4.531870e-02
4.571510e-02
4.609800e-02
4.590760e-02
4.514420e-02
4.380770e-02
4.320130e-02
4.371950e-02
4.375590e-02
4.331050e-02
4.238320e-02
4.125130e-02
4.180060e-02
4.194930e-02
4.169750e-02
4.104530e-02
3.986530e-02
4.034110e-02
4.048770e-02
4.030530e-02
3.979390e-02
4.531870e-02
4.222860e-02
3.940250e-02
3.684030e-02
3.454200e-02
4.380770e-02
4.129310e-02
3.893810e-02
3.674270e-02
3.470700e-02
4.238320e-02
4.036330e-02
3.842190e-02
3.655900e-02
3.477450e-02
4.104530e-02
3.943950e-02
3.785400e-02
3.628900e-02
3.474440e-02
3.979390e-02
3.852140e-02
3.723440e-02
3.593290e-02
3.461670e-02
3.454200e-02
3.270860e-02
3.113330e-02
2.981590e-02
2.875650e-02
3.470700e-02
3.300700e-02
3.153450e-02
3.028950e-02
2.927220e-02
3.477450e-02
3.320620e-02
3.183530e-02
3.066180e-02
2.968570e-02
3.474440e-02
3.330630e-02
3.203570e-02
3.093260e-02
2.999720e-02
3.461670e-02
3.330720e-02
3.213560e-02
3.110210e-02
3.020650e-02
2.875650e-02
2.792820e-02
2.728530e-02
2.682800e-02
2.655610e-02
2.927220e-02
2.841220e-02
2.772830e-02
2.722050e-02
2.688890e-02
2.968570e-02
2.881850e-02
2.811320e-02
2.756970e-02
2.718820e-02
2.999720e-02
2.914720e-02
2.843990e-02
2.787550e-02
2.745380e-02
3.020650e-02
2.939810e-02
2.870860e-02
2.813790e-02
2.768600e-02
2.710540e-02
2.723250e-02
2.735390e-02
2.746950e-02
2.757940e-02
2.733260e-02
2.747340e-02
2.760860e-02
2.773800e-02
2.786170e-02
2.754220e-02
2.769490e-02
2.784160e-02
2.798240e-02
2.811720e-02
2.773410e-02
2.789690e-02
2.805320e-02
2.820280e-02
2.834590e-02