<?xml version="1.0"?>
<VTKFile type="UnstructuredGrid" version="0.1" byte_order="LittleEndian" compressor="vtkZLibDataCompressor">
<UnstructuredGrid>
<Piece NumberOfPoints="2500" NumberOfCells="1600">
<Points>
<DataArray type="Float32" NumberOfComponents="3" format="ascii">
-3.630000e+00 0.000000e+00 0.000000e+00
-3.448500e+00 0.000000e+00 0.000000e+00
-3.267000e+00 0.000000e+00 0.000000e+00
-3.085500e+00 0.000000e+00 0.000000e+00
-2.904000e+00 0.000000e+00 0.000000e+00
-3.630000e+00 1.282500e-01 0.000000e+00
-3.448500e+00 1.282500e-01 0.000000e+00
-3.267000e+00 1.282500e-01 0.000000e+00
-3.085500e+00 1.282500e-01 0.000000e+00
-2.904000e+00 1.282500e-01 0.000000e+00
-3.630000e+00 2.565000e-01 0.000000e+00
-3.448500e+00 2.565000e-01 0.000000e+00
-3.267000e+00 2.565000e-01 0.000000e+00
-3.085500e+00 2.565000e-01 0.000000e+00
-2.904000e+00 2.565000e-01 0.000000e+00
-3.630000e+00 3.847500e-01 0.000000e+00
-3.448500e+00 3.847500e-01 0.000000e+00
-3.267000e+00 3.847500e-01 0.000000e+00
-3.085500e+00 3.847500e-01 0.000000e+00
-2.904000e+00 3.847500e-01 0.000000e+00
-3.630000e+00 5.130000e-01 0.000000e+00
-3.448500e+00 5.130000e-01 0.000000e+00
-3.267000e+00 5.130000e-01 0.000000e+00
-3.085500e+00 5.130000e-01 0.000000e+00
-2.904000e+00 5.130000e-01 0.000000e+00
-2.904000e+00 0.000000e+00 0.000000e+00
-2.722500e+00 0.000000e+00 0.000000e+00
-2.541000e+00 0.000000e+00 0.000000e+00
-2.359500e+00 0.000000e+00 0.000000e+00
-2.178000e+00 0.000000e+00 0.000000e+00
-2.904000e+00 1.282500e-01 0.000000e+00
-2.722500e+00 1.282500e-01 0.000000e+00
-2.541000e+00 1.282500e-01 0.000000e+00
-2.359500e+00 1.282500e-01 0.000000e+00
-2.178000e+00 1.282500e-01 0.000000e+00
-2.904000e+00 2.565000e-01 0.000000e+00
-2.722500e+00 2.565000e-01 0.000000e+00
-2.541000e+00 2.565000e-01 0.000000e+00
-2.359500e+00 2.565000e-01 0.000000e+00
-2.178000e+00 2.565000e-01 0.000000e+00
-2.904000e+00 3.847500e-01 0.000000e+00
-2.722500e+00 3.847500e-01 0.000000e+00
-2.541000e+00 3.847500e-01 0.000000e+00
-2.359500e+00 3.847500e-01 0.000000e+00
-2.178000e+00 3.847500e-01 0.000000e+00
-2.904000e+00 5.130000e-01 0.000000e+00
-2.722500e+00 5.130000e-01 0.000000e+00
-2.541000e+00 5.130000e-01 0.000000e+00
-2.359500e+00 5.130000e-01 0.000000e+00
-2.178000e+00 5.130000e-01 0.000000e+00
-2.178000e+00 0.000000e+00 0.000000e+00
-1.996500e+00 0.000000e+00 0.000000e+00
-1.815000e+00 0.000000e+00 0.000000e+00
-1.633500e+00 0.000000e+00 0.000000e+00
-1.452000e+00 0.000000e+00 0.000000e+00
-2.178000e+00 1.282500e-01 0.000000e+00
-1.996500e+00 1.282500e-01 0.000000e+00
-1.815000e+00 1.282500e-01 0.000000e+00
-1.633500e+00 1.282500e-01 0.000000e+00
-1.452000e+00 1.282500e-01 0.000000e+00
-2.178000e+00 2.565000e-01 0.000000e+00
-1.996500e+00 2.565000e-01 0.000000e+00
-1.815000e+00 2.565000e-01 0.000000e+00
-1.633500e+00 2.565000e-01 0.000000e+00
-1.452000e+00 2.565000e-01 0.000000e+00
-2.178000e+00 3.847500e-01 0.000000e+00
-1.996500e+00 3.847500e-01 0.000000e+00
-1.815000e+00 3.847500e-01 0.000000e+00
-1.633500e+00 3.847500e-01 0.000000e+00
-1.452000e+00 3.847500e-01 0.000000e+00
-2.178000e+00 5.130000e-01 0.000000e+00
-1.996500e+00 5.130000e-01 0.000000e+00
-1.815000e+00 5.130000e-01 0.000000e+00
-1.633500e+00 5.130000e-01 0.000000e+00
-1.452000e+00 5.130000e-01 0.000000e+00
-1.452000e+00 0.000000e+00 0.000000e+00
-1.270500e+00 0.000000e+00 0.000000e+00
-1.089000e+00 0.000000e+00 0.000000e+00
-9.075000e-01 0.000000e+00 0.000000e+00
-7.260000e-01 0.000000e+00 0.000000e+00
-1.452000e+00 1.282500e-01 0.000000e+00
-1.270500e+00 1.282500e-01 0.000000e+00
-1.089000e+00 1.282500e-01 0.000000e+00
-9.075000e-01 1.282500e-01 0.000000e+00
-7.260000e-01 1.282500e-01 0.000000e+00
-1.452000e+00 2.565000e-01 0.000000e+00
-1.270500e+00 2.565000e-01 0.000000e+00
-1.089000e+00 2.565000e-01 0.000000e+00
-9.075000e-01 2.565000e-01 0.000000e+00
-7.260000e-01 2.565000e-01 0.000000e+00
-1.452000e+00 3.847500e-01 0.000000e+00
-1.270500e+00 3.847500e-01 0.000000e+00
-1.089000e+00 3.847500e-01 0.000000e+00
-9.075000e-01 3.847500e-01 0.000000e+00
-7.260000e-01 3.847500e-01 0.000000e+00
-1.452000e+00 5.130000e-01 0.000000e+00
-1.270500e+00 5.130000e-01 0.000000e+00
-1.089000e+00 5.130000e-01 0.000000e+00
-9.075000e-01 5.130000e-01 0.000000e+00
-7.260000e-01 5.130000e-01 0.000000e+00
-7.260000e-01 0.000000e+00 0.000000e+00
-5.445000e-01 0.000000e+00 0.000000e+00
-3.630000e-01 0.000000e+00 0.000000e+00
-1.815000e-01 0.000000e+00 0.000000e+00
0.000000e+00 0.000000e+00 0.000000e+00
-7.260000e-01 1.282500e-01 0.000000e+00
-5.445000e-01 1.282500e-01 0.000000e+00
-3.630000e-01 1.282500e-01 0.000000e+00
-1.815000e-01 1.282500e-01 0.000000e+00
0.000000e+00 1.282500e-01 0.000000e+00
-7.260000e-01 2.565000e-01 0.000000e+00
-5.445000e-01 2.565000e-01 0.000000e+00
-3.630000e-01 2.565000e-01 0.000000e+00
-1.815000e-01 2.565000e-01 0.000000e+00
0.000000e+00 2.565000e-01 0.000000e+00
-7.260000e-01 3.847500e-01 0.000000e+00
-5.445000e-01 3.847500e-01 0.000000e+00
-3.630000e-01 3.847500e-01 0.000000e+00
-1.815000e-01 3.847500e-01 0.000000e+00
0.000000e+00 3.847500e-01 0.000000e+00
-7.260000e-01 5.130000e-01 0.000000e+00
-5.445000e-01 5.130000e-01 0.000000e+00
-3.630000e-01 5.130000e-01 0.000000e+00
-1.815000e-01 5.130000e-01 0.000000e+00
0.000000e+00 5.130000e-01 0.000000e+00
0.000000e+00 0.000000e+00 0.000000e+00
1.815000e-01 0.000000e+00 0.000000e+00
3.630000e-01 0.000000e+00 0.000000e+00
5.445000e-01 0.000000e+00 0.000000e+00
7.260000e-01 0.000000e+00 0.000000e+00
0.000000e+00 1.282500e-01 0.000000e+00
1.815000e-01 1.282500e-01 0.000000e+00
3.630000e-01 1.282500e-01 0.000000e+00
5.445000e-01 1.282500e-01 0.000000e+00
7.260000e-01 1.282500e-01 0.000000e+00
0.000000e+00 2.565000e-01 0.000000e+00
1.815000e-01 2.565000e-01 0.000000e+00
3.630000e-01 2.565000e-01 0.000000e+00
5.445000e-01 2.565000e-01 0.000000e+00
7.260000e-01 2.565000e-01 0.000000e+00
0.000000e+00 3.847500e-01 0.000000e+00
1.815000e-01 3.847500e-01 0.000000e+00
3.630000e-01 3.847500e-01 0.000000e+00
5.445000e-01 3.847500e-01 0.000000e+00
7.260000e-01 3.847500e-01 0.000000e+00
0.000000e+00 5.130000e-01 0.000000e+00
1.815000e-01 5.130000e-01 0.000000e+00
3.630000e-01 5.130000e-01 0.000000e+00
5.445000e-01 5.130000e-01 0.000000e+00
7.260000e-01 5.130000e-01 0.000000e+00
7.260000e-01 0.000000e+00 0.000000e+00
9.075000e-01 0.000000e+00 0.000000e+00
1.089000e+00 0.000000e+00 0.000000e+00
1.270500e+00 0.000000e+00 0.000000e+00
1.452000e+00 0.000000e+00 0.000000e+00
7.260000e-01 1.282500e-01 0.000000e+00
9.075000e-01 1.282500e-01 0.000000e+00
1.089000e+00 1.282500e-01 0.000000e+00
1.270500e+00 1.282500e-01 0.000000e+00
1.452000e+00 1.282500e-01 0.000000e+00
7.260000e-01 2.565000e-01 0.000000e+00
9.075000e-01 2.565000e-01 0.000000e+00
1.089000e+00 2.565000e-01 0.000000e+00
1.270500e+00 2.565000e-01 0.000000e+00
1.452000e+00 2.565000e-01 0.000000e+00
7.260000e-01 3.847500e-01 0.000000e+00
9.075000e-01 3.847500e-01 0.000000e+00
1.089000e+00 3.847500e-01 0.000000e+00
1.270500e+00 3.847500e-01 0.000000e+00
1.452000e+00 3.847500e-01 0.000000e+00
7.260000e-01 5.130000e-01 0.000000e+00
9.075000e-01 5.130000e-01 0.000000e+00
1.089000e+00 5.130000e-01 0.000000e+00
1.270500e+00 5.130000e-01 0.000000e+00
1.452000e+00 5.130000e-01 0.000000e+00
1.452000e+00 0.000000e+00 0.000000e+00
1.633500e+00 0.000000e+00 0.000000e+00
1.815000e+00 0.000000e+00 0.000000e+00
1.996500e+00 0.000000e+00 0.000000e+00
2.178000e+00 0.000000e+00 0.000000e+00
1.452000e+00 1.282500e-01 0.000000e+00
1.633500e+00 1.282500e-01 0.000000e+00
1.815000e+00 1.282500e-01 0.000000e+00
1.996500e+00 1.282500e-01 0.000000e+00
2.178000e+00 1.282500e-01 0.000000e+00
1.452000e+00 2.565000e-01 0.000000e+00
1.633500e+00 2.565000e-01 0.000000e+00
1.815000e+00 2.565000e-01 0.000000e+00
1.996500e+00 2.565000e-01 0.000000e+00
2.178000e+00 2.565000e-01 0.000000e+00
1.452000e+00 3.847500e-01 0.000000e+00
1.633500e+00 3.847500e-01 0.000000e+00
1.815000e+00 3.847500e-01 0.000000e+00
1.996500e+00 3.847500e-01 0.000000e+00
2.178000e+00 3.847500e-01 0.000000e+00
1.452000e+00 5.130000e-01 0.000000e+00
1.633500e+00 5.130000e-01 0.000000e+00
1.815000e+00 5.130000e-01 0.000000e+00
1.996500e+00 5.130000e-01 0.000000e+00
2.178000e+00 5.130000e-01 0.000000e+00
2.178000e+00 0.000000e+00 0.000000e+00
2.359500e+00 0.000000e+00 0.000000e+00
2.541000e+00 0.000000e+00 0.000000e+00
2.722500e+00 0.000000e+00 0.000000e+00
2.904000e+00 0.000000e+00 0.000000e+00
2.178000e+00 1.282500e-01 0.000000e+00
2.359500e+00 1.282500e-01 0.000000e+00
2.541000e+00 1.282500e-01 0.000000e+00
2.722500e+00 1.282500e-01 0.000000e+00
2.904000e+00 1.282500e-01 0.000000e+00
2.178000e+00 2.565000e-01 0.000000e+00
2.359500e+00 2.565000e-01 0.000000e+00
2.541000e+00 2.565000e-01 0.000000e+00
2.722500e+00 2.565000e-01 0.000000e+00
2.904000e+00 2.565000e-01 0.000000e+00
2.178000e+00 3.847500e-01 0.000000e+00
2.359500e+00 3.847500e-01 0.000000e+00
2.541000e+00 3.847500e-01 0.000000e+00
2.722500e+00 3.847500e-01 0.000000e+00
2.904000e+00 3.847500e-01 0.000000e+00
2.178000e+00 5.130000e-01 0.000000e+00
2.359500e+00 5.130000e-01 0.000000e+00
2.541000e+00 5.130000e-01 0.000000e+00
2.722500e+00 5.130000e-01 0.000000e+00
2.904000e+00 5.130000e-01 0.000000e+00
2.904000e+00 0.000000e+00 0.000000e+00
3.085500e+00 0.000000e+00 0.000000e+00
3.267000e+00 0.000000e+00 0.000000e+00
3.448500e+00 0.000000e+00 0.000000e+00
3.630000e+00 0.000000e+00 0.000000e+00
2.904000e+00 1.282500e-01 0.000000e+00
3.085500e+00 1.282500e-01 0.000000e+00
3.267000e+00 1.282500e-01 0.000000e+00
3.448500e+00 1.282500e-01 0.000000e+00
3.630000e+00 1.282500e-01 0.000000e+00
2.904000e+00 2.565000e-01 0.000000e+00
3.085500e+00 2.565000e-01 0.000000e+00
3.267000e+00 2.565000e-01 0.000000e+00
3.448500e+00 2.565000e-01 0.000000e+00
3.630000e+00 2.565000e-01 0.000000e+00
2.904000e+00 3.847500e-01 0.000000e+00
3.085500e+00 3.847500e-01 0.000000e+00
3.267000e+00 3.847500e-01 0.000000e+00
3.448500e+00 3.847500e-01 0.000000e+00
3.630000e+00 3.847500e-01 0.000000e+00
2.904000e+00 5.130000e-01 0.000000e+00
[...]
<PointData>
<DataArray type="Float32" Name="V1" format="ascii">
0.000000e+00
0.000000e+00
0.000000e+00
0.000000e+00
0.000000e+00
1.264110e-02
1.102920e-02
9.680790e-03
8.595800e-03
7.774270e-03
2.028400e-02
1.821900e-02
1.643520e-02
1.493280e-02
1.371160e-02
2.292870e-02
2.156920e-02
2.026330e-02
1.901090e-02
1.781190e-02
2.057510e-02
2.108000e-02
2.116500e-02
2.083010e-02
2.007530e-02
0.000000e+00
0.000000e+00
0.000000e+00
0.000000e+00
0.000000e+00
7.774270e-03
6.784420e-03
6.102450e-03
5.728350e-03
5.662140e-03
1.371160e-02
1.221300e-02
1.112900e-02
1.045950e-02
1.020450e-02
1.781190e-02
1.628580e-02
1.507960e-02
1.419340e-02
1.362710e-02
2.007530e-02
1.900270e-02
1.795430e-02
1.693000e-02
1.592990e-02
0.000000e+00
0.000000e+00
0.000000e+00
0.000000e+00
0.000000e+00
5.662140e-03
5.745610e-03
5.770630e-03
5.737180e-03
5.645270e-03
1.020450e-02
1.022770e-02
1.010670e-02
9.841720e-03
9.432620e-03
1.362710e-02
1.344610e-02
1.300830e-02
1.231360e-02
1.136200e-02
1.592990e-02
1.540110e-02
1.447540e-02
1.315290e-02
1.143350e-02
0.000000e+00
0.000000e+00
0.000000e+00
0.000000e+00
0.000000e+00
5.645270e-03
4.054110e-03
3.792490e-03
4.860430e-03
7.257930e-03
9.432620e-03
6.635040e-03
5.800400e-03
6.928690e-03
1.001990e-02
1.136200e-02
7.742800e-03
6.023710e-03
6.204780e-03
8.286000e-03
1.143350e-02
7.377390e-03
4.462440e-03
2.688700e-03
2.056150e-03
0.000000e+00
0.000000e+00
0.000000e+00
0.000000e+00
0.000000e+00
7.257930e-03
1.353600e-03
-6.841200e-03
-1.732650e-02
-3.010220e-02
1.001990e-02
-1.519730e-03
-1.537440e-02
-3.154410e-02
-5.002880e-02
8.286000e-03
-8.619970e-03
-2.559960e-02
-4.265280e-02
-5.977960e-02
2.056150e-03
-1.994710e-02
-3.751670e-02
-5.065260e-02
-5.935480e-02
0.000000e+00
0.000000e+00
0.000000e+00
0.000000e+00
0.000000e+00
-3.010220e-02
-2.815410e-02
-2.604490e-02
-2.377440e-02
-2.134280e-02
-5.002880e-02
-4.600570e-02
-4.179220e-02
-3.738830e-02
-3.279390e-02
-5.977960e-02
-5.355460e-02
-4.724190e-02
-4.084140e-02
-3.435320e-02
-5.935480e-02
-5.080100e-02
-4.239410e-02
-3.413400e-02
-2.602080e-02
0.000000e+00
0.000000e+00
0.000000e+00
0.000000e+00
0.000000e+00
-2.134280e-02
-1.830350e-02
-1.480460e-02
-1.084630e-02
-6.428360e-03
-3.279390e-02
-2.815470e-02
-2.277090e-02
-1.664250e-02
-9.769390e-03
-3.435320e-02
-2.955360e-02
-2.389870e-02
-1.738860e-02
-1.002310e-02
-2.602080e-02
-2.250030e-02
-1.818820e-02
-1.308460e-02
-7.189440e-03
0.000000e+00
0.000000e+00
0.000000e+00
0.000000e+00
0.000000e+00
-6.428360e-03
-2.264900e-03
8.926900e-04
3.044420e-03
4.190280e-03
-9.769390e-03
-3.145810e-03
1.921920e-03
5.433790e-03
7.389800e-03
-1.002310e-02
-2.642710e-03
3.087680e-03
7.168110e-03
9.598550e-03
-7.189440e-03
-7.556210e-04
4.389990e-03
8.247370e-03
1.081650e-02
0.000000e+00
0.000000e+00
0.000000e+00
0.000000e+00
0.000000e+00
4.190280e-03
5.518320e-03
6.608160e-03
7.459790e-03
8.073210e-03
7.389800e-03
9.575910e-03
1.137410e-02
1.278430e-02
1.380650e-02
9.598550e-03
1.217270e-02
1.429770e-02
1.597340e-02
1.719990e-02
1.081650e-02
1.330890e-02
1.537910e-02
1.702730e-02
1.825330e-02
0.000000e+00
0.000000e+00
0.000000e+00
0.000000e+00
0.000000e+00
8.073210e-03
8.678980e-03
9.299010e-03
9.933320e-03
1.058190e-02
1.380650e-02
1.493490e-02
1.602590e-02
1.707970e-02
1.809610e-02
1.719990e-02
1.876760e-02
2.018070e-02
2.143910e-02
2.254270e-02
1.825330e-02
2.017730e-02
2.176340e-02
2.301150e-02
2.392170e-02
2.057510e-02
2.108000e-02
2.116500e-02
2.083010e-02
2.007530e-02
2.078850e-02
2.097270e-02
2.099940e-02
2.086870e-02
2.058060e-02
2.103660e-02
2.096200e-02
2.090410e-02
2.086290e-02
2.083850e-02
2.131930e-02
2.104800e-02
2.087920e-02
2.081290e-02
2.084900e-02
2.163650e-02
2.123070e-02
2.092470e-02
2.071850e-02
2.061230e-02
2.007530e-02
1.900270e-02
1.795430e-02
1.693000e-02
1.592990e-02
2.058060e-02
1.989970e-02
1.913050e-02
1.827300e-02
1.732710e-02
2.083850e-02
2.042900e-02
1.988010e-02
1.919170e-02
1.836370e-02
2.084900e-02
2.059080e-02
2.020310e-02
1.968610e-02
1.903970e-02
2.061230e-02
2.038480e-02
2.009950e-02
1.975630e-02
1.935520e-02
1.592990e-02
1.540110e-02
1.447540e-02
1.315290e-02
1.143350e-02
1.732710e-02
1.607250e-02
1.474670e-02
1.334990e-02
1.188210e-02
1.836370e-02
1.640480e-02
1.481820e-02
1.360400e-02
1.276230e-02
1.903970e-02
1.639800e-02
1.468980e-02
1.391520e-02
1.407420e-02
1.935520e-02
1.605210e-02
1.436150e-02
1.428340e-02
1.581780e-02
1.143350e-02
7.377390e-03
4.462440e-03
2.688700e-03
2.056150e-03
1.188210e-02
7.208600e-03
3.105910e-03
-4.260160e-04
-3.387190e-03
1.276230e-02
7.367740e-03
2.335110e-03
-2.335620e-03
-6.644460e-03
1.407420e-02
7.854800e-03
2.150030e-03
-3.040120e-03
-7.715680e-03
1.581780e-02
8.669790e-03
2.550690e-03
-2.539520e-03
-6.600840e-03
2.056150e-03
-1.994710e-02
-3.751670e-02
-5.065260e-02
-5.935480e-02
-3.387190e-03
-2.431570e-02
-4.062570e-02
-5.231700e-02
-5.938990e-02
-6.644460e-03
-2.452900e-02
-3.814410e-02
-4.748960e-02
-5.256560e-02
-7.715680e-03
-2.058710e-02
-3.007200e-02
-3.617040e-02
-3.888210e-02
-6.600840e-03
-1.249000e-02
-1.640950e-02
-1.835920e-02
-1.833930e-02
-5.935480e-02
-5.080100e-02
-4.239410e-02
-3.413400e-02
-2.602080e-02
-5.938990e-02
-5.109130e-02
-4.198940e-02
-3.208440e-02
-2.137610e-02
-5.256560e-02
-4.537120e-02
-3.671330e-02
-2.659200e-02
-1.500730e-02
-3.888210e-02
-3.364080e-02
-2.656570e-02
-1.765700e-02
-6.914490e-03
-1.833930e-02
-1.590000e-02
-1.154660e-02
-5.279130e-03
2.902440e-03
-2.602080e-02
-2.250030e-02
-1.818820e-02
-1.308460e-02
-7.189440e-03
-2.137610e-02
-1.879400e-02
-1.534000e-02
-1.101420e-02
-5.816590e-03
-1.500730e-02
-1.313640e-02
-1.056060e-02
-7.280030e-03
-3.294590e-03
-6.914490e-03
-5.527640e-03
-3.850180e-03
-1.882120e-03
3.765380e-04
2.902440e-03
4.032340e-03
4.791370e-03
5.179530e-03
5.196800e-03
-7.189440e-03
-7.556210e-04
4.389990e-03
8.247370e-03
1.081650e-02
-5.816590e-03
1.071230e-03
6.370230e-03
1.008040e-02
1.220180e-02
-3.294590e-03
3.515230e-03
8.598780e-03
1.195610e-02
1.358710e-02
3.765380e-04
6.576380e-03
1.107560e-02
1.387430e-02
1.497240e-02
5.196800e-03
1.025470e-02
1.380080e-02
1.583510e-02
1.635760e-02
1.081650e-02
1.330890e-02
1.537910e-02
1.702730e-02
1.825330e-02
1.220180e-02
1.440790e-02
1.624730e-02
1.772020e-02
1.882640e-02
1.358710e-02
1.548930e-02
1.708340e-02
1.836930e-02
1.934700e-02
1.497240e-02
1.655320e-02
1.788730e-02
1.897450e-02
1.981490e-02
1.635760e-02
1.759960e-02
1.865900e-02
1.953600e-02
2.023040e-02
1.825330e-02
2.017730e-02
2.176340e-02
2.301150e-02
2.392170e-02
1.882640e-02
2.082500e-02
2.244830e-02
2.369630e-02
2.456900e-02
1.934700e-02
2.134430e-02
2.293810e-02
2.412840e-02
2.491520e-02
1.981490e-02
2.173530e-02
2.323300e-02
2.430800e-02
2.496030e-02
2.023040e-02
2.199800e-02
2.333280e-02
2.423490e-02
2.470420e-02
2.163650e-02
2.123070e-02
2.092470e-02
2.071850e-02
2.061230e-02
2.197900e-02
2.158300e-02
2.126640e-02
2.102920e-02
2.087150e-02
2.233590e-02
2.197240e-02
2.166820e-02
2.142350e-02
2.123820e-02
2.270730e-02
2.239880e-02
2.213020e-02
2.190130e-02
2.171240e-02
2.309330e-02
2.286240e-02
2.265220e-02
2.246270e-02
2.229400e-02
2.061230e-02
2.038480e-02
2.009950e-02
1.975630e-02
1.935520e-02
2.087150e-02
2.051450e-02
2.020460e-02
1.994180e-02
1.972600e-02
2.123820e-02
2.076460e-02
2.043120e-02
2.023800e-02
2.018500e-02
2.171240e-02
2.113500e-02
2.077920e-02
2.064480e-02
2.073200e-02
2.229400e-02
2.162580e-02
2.124870e-02
2.116240e-02
2.136710e-02
1.935520e-02
1.605210e-02
1.436150e-02
1.428340e-02
1.581780e-02
1.972600e-02
1.607530e-02
1.447560e-02
1.492690e-02
1.742910e-02
2.018500e-02
1.640370e-02
1.493450e-02
1.577730e-02
1.893200e-02
2.073200e-02
1.703730e-02
1.573820e-02
1.683460e-02
2.032650e-02
2.136710e-02
1.797610e-02
1.688670e-02
1.809890e-02
2.161260e-02
1.581780e-02
8.669790e-03
2.550690e-03
-2.539520e-03
-6.600840e-03
1.742910e-02
9.934300e-03
4.172050e-03
1.423810e-04
-2.154720e-03
1.893200e-02
1.190200e-02
6.801080e-03
3.629330e-03
2.386730e-03
2.032650e-02
1.457280e-02
1.043780e-02
7.921330e-03
7.023520e-03
2.161260e-02
1.794690e-02
1.508210e-02
1.301840e-02
1.175560e-02
-6.600840e-03
-1.249000e-02
-1.640950e-02
-1.835920e-02
-1.833930e-02
-2.154720e-03
1.295300e-06
2.194050e-03
4.423550e-03
6.689780e-03
2.386730e-03
1.070130e-02
1.756800e-02
2.298700e-02
2.695810e-02
7.023520e-03
1.961000e-02
2.971250e-02
3.733100e-02
4.246560e-02
1.175560e-02
2.672740e-02
3.862740e-02
4.745570e-02
5.321230e-02
-1.833930e-02
-1.590000e-02
-1.154660e-02
-5.279130e-03
2.902440e-03
6.689780e-03
2.973920e-03
2.457670e-03
5.141030e-03
1.102400e-02
2.695810e-02
1.954190e-02
1.585470e-02
1.589650e-02
1.966710e-02
4.246560e-02
3.380410e-02
2.864460e-02
2.698710e-02
2.883180e-02
5.321230e-02
4.576030e-02
4.082720e-02
3.841310e-02
3.851790e-02
2.902440e-03
4.032340e-03
4.791370e-03
5.179530e-03
5.196800e-03
1.102400e-02
1.163160e-02
1.167990e-02
1.116890e-02
1.009860e-02
1.966710e-02
1.925450e-02
1.828150e-02
1.674810e-02
1.465440e-02
2.883180e-02
2.690100e-02
2.459620e-02
2.191730e-02
1.886440e-02
3.851790e-02
3.457120e-02
3.062410e-02
2.667650e-02
2.272840e-02
5.196800e-03
1.025470e-02
1.380080e-02
1.583510e-02
1.635760e-02
1.009860e-02
1.372980e-02
1.619870e-02
1.750520e-02
1.764930e-02
1.465440e-02
1.701510e-02
1.852240e-02
1.917620e-02
1.897670e-02
1.886440e-02
2.011050e-02
2.077180e-02
2.084830e-02
2.033990e-02
2.272840e-02
2.301610e-02
2.294710e-02
2.252140e-02
2.173890e-02
1.635760e-02
1.759960e-02
1.865900e-02
1.953600e-02
2.023040e-02
1.764930e-02
1.872490e-02
1.963450e-02
2.037830e-02
2.095630e-02
1.897670e-02
1.985730e-02
2.059690e-02
2.119530e-02
2.165260e-02
2.033990e-02
2.099700e-02
2.154600e-02
2.198680e-02
2.231950e-02
2.173890e-02
2.214390e-02
2.248180e-02
2.275280e-02
2.295690e-02
2.023040e-02
2.199800e-02
2.333280e-02
2.423490e-02
2.470420e-02
2.095630e-02
2.238510e-02
2.348330e-02
2.425100e-02
2.468820e-02
2.165260e-02
2.276370e-02
2.364020e-02
2.428200e-02
2.468920e-02
2.231950e-02
2.313390e-02
2.380340e-02
2.432780e-02
2.470730e-02
2.295690e-02
2.349570e-02
2.397290e-02
2.438850e-02
2.474230e-02
2.309330e-02
2.286240e-02
2.265220e-02
2.246270e-02
2.229400e-02
2.348320e-02
2.327690e-02
2.310310e-02
2.296190e-02
2.285320e-02
2.386930e-02
2.368360e-02
2.354180e-02
2.344400e-02
2.339010e-02
2.425160e-02
2.408260e-02
2.396850e-02
2.390910e-02
2.390450e-02
2.463000e-02
2.447390e-02
2.438290e-02
2.435710e-02
2.439640e-02
2.229400e-02
2.162580e-02
2.124870e-02
2.116240e-02
2.136710e-02
2.285320e-02
2.219890e-02
2.184070e-02
2.177880e-02
2.201300e-02
2.339010e-02
2.277620e-02
2.245380e-02
2.242290e-02
2.268330e-02
2.390450e-02
2.335790e-02
2.308790e-02
2.309470e-02
2.337810e-02
2.439640e-02
2.394380e-02
2.374310e-02
2.379420e-02
2.409730e-02
2.136710e-02
1.797610e-02
1.688670e-02
1.809890e-02
2.161260e-02
2.201300e-02
1.948570e-02
1.869650e-02
1.964530e-02
2.233220e-02
2.268330e-02
2.096490e-02
2.048140e-02
2.123300e-02
2.321960e-02
2.337810e-02
2.241370e-02
2.224170e-02
2.286210e-02
2.427490e-02
2.409730e-02
2.383210e-02
2.397710e-02
2.453250e-02
2.549810e-02
2.161260e-02
1.794690e-02
1.508210e-02
1.301840e-02
1.175560e-02
2.233220e-02
2.142850e-02
2.048810e-02
1.951110e-02
1.849740e-02
2.321960e-02
2.419730e-02
2.474550e-02
2.486440e-02
2.455400e-02
2.427490e-02
2.625330e-02
2.785440e-02
2.907840e-02
2.992520e-02
2.549810e-02
2.759640e-02
2.981470e-02
3.215300e-02
3.461130e-02
1.175560e-02
2.672740e-02
3.862740e-02
4.745570e-02
5.321230e-02
1.849740e-02
3.225530e-02
4.360670e-02
5.255150e-02
5.908980e-02
2.455400e-02
3.673180e-02
4.707250e-02
5.557610e-02
6.224240e-02
2.992520e-02
4.015690e-02
4.902500e-02
5.652940e-02
6.267020e-02
3.461130e-02
4.253060e-02
4.946400e-02
5.541150e-02
6.037310e-02
5.321230e-02
4.576030e-02
4.082720e-02
3.841310e-02
3.851790e-02
5.908980e-02
5.393090e-02
4.969790e-02
4.639090e-02
4.400980e-02
6.224240e-02
5.876510e-02
5.515230e-02
5.140410e-02
4.752030e-02
6.267020e-02
6.026290e-02
5.719040e-02
5.345250e-02
4.904940e-02
6.037310e-02
5.842440e-02
5.581210e-02
5.253640e-02
4.859710e-02
3.851790e-02
3.457120e-02
3.062410e-02
2.667650e-02
2.272840e-02
4.400980e-02
3.860960e-02
3.373490e-02
2.938600e-02
2.556260e-02
4.752030e-02
4.142480e-02
3.614070e-02
3.166810e-02
2.800710e-02
4.904940e-02
4.301680e-02
3.784130e-02
3.352300e-02
3.006190e-02
4.859710e-02
4.338570e-02
3.883680e-02
3.495060e-02
3.172690e-02
2.272840e-02
2.301610e-02
2.294710e-02
2.252140e-02
2.173890e-02
2.556260e-02
2.526100e-02
2.475380e-02
2.404110e-02
2.312280e-02
2.800710e-02
2.719300e-02
2.631440e-02
2.537130e-02
2.436370e-02
3.006190e-02
2.881210e-02
2.762880e-02
2.651210e-02
2.546170e-02
3.172690e-02
3.011840e-02
2.869720e-02
2.746340e-02
2.641680e-02
2.173890e-02
2.214390e-02
2.248180e-02
2.275280e-02
2.295690e-02
2.312280e-02
2.326030e-02
2.336450e-02
2.343530e-02
2.347270e-02
2.436370e-02
2.427630e-02
2.418080e-02
2.407730e-02
2.396580e-02
2.546170e-02
2.519170e-02
2.493080e-02
2.467900e-02
2.443640e-02
2.641680e-02
2.600650e-02
2.561430e-02
2.524030e-02
2.488430e-02
2.295690e-02
2.349570e-02
2.397290e-02
2.438850e-02
2.474230e-02
2.347270e-02
2.391000e-02
2.427760e-02
2.457560e-02
2.480400e-02
2.396580e-02
2.430950e-02
2.457510e-02
2.476280e-02
2.487240e-02
2.443640e-02
2.469420e-02
2.486540e-02
2.494980e-02
2.494770e-02
2.488430e-02
2.506420e-02
2.514840e-02
2.513690e-02
2.502970e-02
2.463000e-02
2.447390e-02
2.438290e-02
2.435710e-02
2.439640e-02
2.499690e-02
2.487120e-02
2.480940e-02
2.481150e-02
2.487750e-02
2.534870e-02
2.525680e-02
2.522500e-02
2.525350e-02
2.534220e-02
2.568540e-02
2.563060e-02
2.562990e-02
2.568310e-02
2.579040e-02
2.600690e-02
2.599270e-02
2.602380e-02
2.610030e-02
2.622220e-02
2.439640e-02
2.394380e-02
2.374310e-02
2.379420e-02
2.409730e-02
2.487750e-02
2.453370e-02
2.441300e-02
2.451540e-02
2.484100e-02
2.534220e-02
2.510060e-02
2.505290e-02
2.519920e-02
2.553950e-02
2.579040e-02
2.564440e-02
2.566290e-02
2.584570e-02
2.619290e-02
2.622220e-02
2.616530e-02
2.624280e-02
2.645470e-02
2.680110e-02
2.409730e-02
2.383210e-02
2.397710e-02
2.453250e-02
2.549810e-02
2.484100e-02
2.487150e-02
2.522460e-02
2.590020e-02
2.689840e-02
2.553950e-02
2.577990e-02
2.628220e-02
2.704660e-02
2.807290e-02
2.619290e-02
2.655720e-02
2.715010e-02
2.797160e-02
2.902170e-02
2.680110e-02
2.720350e-02
2.782820e-02
2.867530e-02
2.974470e-02
2.549810e-02
2.759640e-02
2.981470e-02
3.215300e-02
3.461130e-02
2.689840e-02
2.888110e-02
3.111750e-02
3.360770e-02
3.635160e-02
2.807290e-02
2.999440e-02
3.219380e-02
3.467130e-02
3.742680e-02
2.902170e-02
3.093620e-02
3.304360e-02
3.534380e-02
3.783690e-02
2.974470e-02
3.170670e-02
3.366690e-02
3.562530e-02
3.758190e-02
3.461130e-02
4.253060e-02
4.946400e-02
5.541150e-02
6.037310e-02
3.635160e-02
4.320440e-02
4.905560e-02
5.390520e-02
5.775300e-02
3.742680e-02
4.316190e-02
4.796340e-02
5.183120e-02
5.476530e-02
3.783690e-02
4.240300e-02
4.618730e-02
4.918960e-02
5.141000e-02
3.758190e-02
4.092780e-02
4.372720e-02
4.598030e-02
4.768710e-02
6.037310e-02
5.842440e-02
5.581210e-02
5.253640e-02
4.859710e-02
5.775300e-02
5.592740e-02
5.358490e-02
5.072550e-02
4.734920e-02
5.476530e-02
5.320980e-02
5.124090e-02
4.885850e-02
4.606260e-02
5.141000e-02
5.027160e-02
4.878010e-02
4.693540e-02
4.473750e-02
4.768710e-02
4.711280e-02
4.620260e-02
4.495620e-02
4.337380e-02
4.859710e-02
4.338570e-02
3.883680e-02
3.495060e-02
3.172690e-02
4.734920e-02
4.280350e-02
3.882950e-02
3.542730e-02
3.259690e-02
4.606260e-02
4.217940e-02
3.875970e-02
3.580350e-02
3.331100e-02
4.473750e-02
4.151330e-02
3.862720e-02
3.607910e-02
3.386920e-02
4.337380e-02
4.080530e-02
3.843210e-02
3.625410e-02
3.427150e-02
3.172690e-02
3.011840e-02
2.869720e-02
2.746340e-02
2.641680e-02
3.259690e-02
3.099930e-02
2.957580e-02
2.832650e-02
2.725140e-02
3.331100e-02
3.171770e-02
3.029360e-02
2.903860e-02
2.795270e-02
3.386920e-02
3.227370e-02
3.085040e-02
2.959950e-02
2.852080e-02
3.427150e-02
3.266720e-02
3.124650e-02
3.000930e-02
2.895580e-02
2.641680e-02
2.600650e-02
2.561430e-02
2.524030e-02
2.488430e-02
2.725140e-02
2.672870e-02
2.624240e-02
2.579230e-02
2.537860e-02
2.795270e-02
2.734230e-02
2.678400e-02
2.627780e-02
2.582370e-02
2.852080e-02
2.784710e-02
2.723900e-02
2.669650e-02
2.621970e-02
2.895580e-02
2.824330e-02
2.760760e-02
2.704870e-02
2.656650e-02
2.488430e-02
2.506420e-02
2.514840e-02
2.513690e-02
2.502970e-02
2.537860e-02
2.541680e-02
2.539270e-02
2.530620e-02
2.515720e-02
2.582370e-02
2.573710e-02
2.561850e-02
2.546790e-02
2.528510e-02
2.621970e-02
2.602510e-02
2.582590e-02
2.562200e-02
2.541340e-02
2.656650e-02
2.628080e-02
2.601480e-02
2.576860e-02
2.554200e-02
2.600690e-02
2.599270e-02
2.602380e-02
2.610030e-02
2.622220e-02
2.630990e-02
2.633210e-02
2.639310e-02
2.649280e-02
2.663140e-02
2.659390e-02
2.664980e-02
2.673830e-02
2.685920e-02
2.701270e-02
2.685910e-02
2.694600e-02
2.705950e-02
2.719950e-02
2.736610e-02
2.710540e-02
2.722060e-02
2.735670e-02
2.751370e-02
2.769170e-02
2.622220e-02
2.616530e-02
2.624280e-02
2.645470e-02
2.680110e-02
2.663140e-02
2.662820e-02
2.674610e-02
2.698500e-02
2.734510e-02
2.701270e-02
2.705390e-02
2.720430e-02
2.746400e-02
2.783300e-02
2.736610e-02
2.744230e-02
2.761750e-02
2.789170e-02
2.826490e-02
2.769170e-02
2.779350e-02
2.798570e-02
2.826810e-02
2.864090e-02
2.680110e-02
2.720350e-02
2.782820e-02
2.867530e-02
2.974470e-02
2.734510e-02
2.780020e-02
2.844400e-02
2.927650e-02
3.029760e-02
2.783300e-02
2.832930e-02
2.897990e-02
2.978470e-02
3.074380e-02
2.826490e-02
2.879080e-02
2.943570e-02
3.019990e-02
3.108310e-02
2.864090e-02
2.918450e-02
2.981160e-02
3.052200e-02
3.131570e-02
2.974470e-02
3.170670e-02
3.366690e-02
3.562530e-02
3.758190e-02
3.029760e-02
3.210320e-02
3.388090e-02
3.563060e-02
3.735250e-02
3.074380e-02
3.237340e-02
3.396240e-02
3.551080e-02
3.701850e-02
3.108310e-02
3.251740e-02
3.391160e-02
3.526580e-02
3.657990e-02
3.131570e-02
3.253510e-02
3.372840e-02
3.489570e-02
3.603690e-02
3.758190e-02
4.092780e-02
4.372720e-02
4.598030e-02
4.768710e-02
3.735250e-02
4.003150e-02
4.226000e-02
4.403800e-02
4.536540e-02
3.701850e-02
3.916250e-02
4.093410e-02
4.233340e-02
4.336040e-02
3.657990e-02
3.832070e-02
3.974960e-02
4.086660e-02
4.167180e-02
3.603690e-02
3.750610e-02
3.870640e-02
3.963760e-02
4.029980e-02
4.768710e-02
4.711280e-02
4.620260e-02
4.495620e-02
4.337380e-02
4.536540e-02
4.496130e-02
4.426140e-02
4.326580e-02
4.197460e-02
4.336040e-02
4.309110e-02
4.256280e-02
4.177560e-02
4.072940e-02
4.167180e-02
4.150230e-02
4.110680e-02
4.048540e-02
3.963820e-02
4.029980e-02
4.019490e-02
3.989340e-02
3.939550e-02
3.870110e-02
4.337380e-02
4.080530e-02
3.843210e-02
3.625410e-02
3.427150e-02
4.197460e-02
3.979710e-02
3.777930e-02
3.592120e-02
3.422280e-02
4.072940e-02
3.890270e-02
3.719820e-02
3.561570e-02
3.415530e-02
3.963820e-02
3.812220e-02
3.668870e-02
3.533760e-02
3.406890e-02
3.870110e-02
3.745560e-02
3.625080e-02
3.508680e-02
3.396350e-02
3.427150e-02
3.266720e-02
3.124650e-02
3.000930e-02
2.895580e-02
3.422280e-02
3.277230e-02
3.147040e-02
3.031720e-02
2.931260e-02
3.415530e-02
3.283420e-02
3.163530e-02
3.055870e-02
2.960440e-02
3.406890e-02
3.285290e-02
3.174130e-02
3.073400e-02
2.983100e-02
3.396350e-02
3.282850e-02
3.178830e-02
3.084290e-02
2.999240e-02
2.895580e-02
2.824330e-02
2.760760e-02
2.704870e-02
2.656650e-02
2.931260e-02
2.859260e-02
2.794670e-02
2.737500e-02
2.687730e-02
2.960440e-02
2.888350e-02
2.823360e-02
2.765490e-02
2.714720e-02
2.983100e-02
2.911580e-02
2.846830e-02
2.788840e-02
2.737620e-02
2.999240e-02
2.928970e-02
2.865070e-02
2.807560e-02
2.756430e-02
2.656650e-02
2.628080e-02
2.601480e-02
2.576860e-02
2.554200e-02
2.687730e-02
2.653570e-02
2.622350e-02
2.594080e-02
2.568760e-02
2.714720e-02
2.676070e-02
2.641140e-02
2.609940e-02
2.582450e-02
2.737620e-02
2.695590e-02
2.657850e-02
2.624410e-02
2.595270e-02
2.756430e-02
2.712120e-02
2.672480e-02
2.637510e-02
2.607220e-02
2.710540e-02
2.722060e-02
2.735670e-02
2.751370e-02
2.769170e-02
2.733260e-02
2.746530e-02
2.761670e-02
2.778680e-02
2.797560e-02
2.754220e-02
2.768980e-02
2.785380e-02
2.803420e-02
2.823100e-02
2.773410e-02
2.789410e-02
2.806810e-02
2.825610e-02
2.845810e-02
2.790840e-02