<?xml version="1.0"?>
<VTKFile type="UnstructuredGrid" version="0.1" byte_order="LittleEndian" compressor="vtkZLibDataCompressor">
<UnstructuredGrid>
<Piece NumberOfPoints="2500" NumberOfCells="1600">
<Points>
<DataArray type="Float32" NumberOfComponents="3" format="ascii">
-3.630000e+00 0.000000e+00 0.000000e+00
-3.448500e+00 0.000000e+00 0.000000e+00
-3.267000e+00 0.000000e+00 0.000000e+00
-3.085500e+00 0.000000e+00 0.000000e+00
-2.904000e+00 0.000000e+00 0.000000e+00
-3.630000e+00 1.282500e-01 0.000000e+00
-3.448500e+00 1.282500e-01 0.000000e+00
-3.267000e+00 1.282500e-01 0.000000e+00
-3.085500e+00 1.282500e-01 0.000000e+00
-2.904000e+00 1.282500e-01 0.000000e+00
-3.630000e+00 2.565000e-01 0.000000e+00
-3.448500e+00 2.565000e-01 0.000000e+00
-3.267000e+00 2.565000e-01 0.000000e+00
-3.085500e+00 2.565000e-01 0.000000e+00
-2.904000e+00 2.565000e-01 0.000000e+00
-3.630000e+00 3.847500e-01 0.000000e+00
-3.448500e+00 3.847500e-01 0.000000e+00
-3.267000e+00 3.847500e-01 0.000000e+00
-3.085500e+00 3.847500e-01 0.000000e+00
-2.904000e+00 3.847500e-01 0.000000e+00
-3.630000e+00 5.130000e-01 0.000000e+00
-3.448500e+00 5.130000e-01 0.000000e+00
-3.267000e+00 5.130000e-01 0.000000e+00
-3.085500e+00 5.130000e-01 0.000000e+00
-2.904000e+00 5.130000e-01 0.000000e+00
-2.904000e+00 0.000000e+00 0.000000e+00
-2.722500e+00 0.000000e+00 0.000000e+00
-2.541000e+00 0.000000e+00 0.000000e+00
-2.359500e+00 0.000000e+00 0.000000e+00
-2.178000e+00 0.000000e+00 0.000000e+00
-2.904000e+00 1.282500e-01 0.000000e+00
-2.722500e+00 1.282500e-01 0.000000e+00
-2.541000e+00 1.282500e-01 0.000000e+00
-2.359500e+00 1.282500e-01 0.000000e+00
-2.178000e+00 1.282500e-01 0.000000e+00
-2.904000e+00 2.565000e-01 0.000000e+00
-2.722500e+00 2.565000e-01 0.000000e+00
-2.541000e+00 2.565000e-01 0.000000e+00
-2.359500e+00 2.565000e-01 0.000000e+00
-2.178000e+00 2.565000e-01 0.000000e+00
-2.904000e+00 3.847500e-01 0.000000e+00
-2.722500e+00 3.847500e-01 0.000000e+00
-2.541000e+00 3.847500e-01 0.000000e+00
-2.359500e+00 3.847500e-01 0.000000e+00
-2.178000e+00 3.847500e-01 0.000000e+00
-2.904000e+00 5.130000e-01 0.000000e+00
-2.722500e+00 5.130000e-01 0.000000e+00
-2.541000e+00 5.130000e-01 0.000000e+00
-2.359500e+00 5.130000e-01 0.000000e+00
-2.178000e+00 5.130000e-01 0.000000e+00
-2.178000e+00 0.000000e+00 0.000000e+00
-1.996500e+00 0.000000e+00 0.000000e+00
-1.815000e+00 0.000000e+00 0.000000e+00
-1.633500e+00 0.000000e+00 0.000000e+00
-1.452000e+00 0.000000e+00 0.000000e+00
-2.178000e+00 1.282500e-01 0.000000e+00
-1.996500e+00 1.282500e-01 0.000000e+00
-1.815000e+00 1.282500e-01 0.000000e+00
-1.633500e+00 1.282500e-01 0.000000e+00
-1.452000e+00 1.282500e-01 0.000000e+00
-2.178000e+00 2.565000e-01 0.000000e+00
-1.996500e+00 2.565000e-01 0.000000e+00
-1.815000e+00 2.565000e-01 0.000000e+00
-1.633500e+00 2.565000e-01 0.000000e+00
-1.452000e+00 2.565000e-01 0.000000e+00
-2.178000e+00 3.847500e-01 0.000000e+00
-1.996500e+00 3.847500e-01 0.000000e+00
-1.815000e+00 3.847500e-01 0.000000e+00
-1.633500e+00 3.847500e-01 0.000000e+00
-1.452000e+00 3.847500e-01 0.000000e+00
-2.178000e+00 5.130000e-01 0.000000e+00
-1.996500e+00 5.130000e-01 0.000000e+00
-1.815000e+00 5.130000e-01 0.000000e+00
-1.633500e+00 5.130000e-01 0.000000e+00
-1.452000e+00 5.130000e-01 0.000000e+00
-1.452000e+00 0.000000e+00 0.000000e+00
-1.270500e+00 0.000000e+00 0.000000e+00
-1.089000e+00 0.000000e+00 0.000000e+00
-9.075000e-01 0.000000e+00 0.000000e+00
-7.260000e-01 0.000000e+00 0.000000e+00
-1.452000e+00 1.282500e-01 0.000000e+00
-1.270500e+00 1.282500e-01 0.000000e+00
-1.089000e+00 1.282500e-01 0.000000e+00
-9.075000e-01 1.282500e-01 0.000000e+00
-7.260000e-01 1.282500e-01 0.000000e+00
-1.452000e+00 2.565000e-01 0.000000e+00
-1.270500e+00 2.565000e-01 0.000000e+00
-1.089000e+00 2.565000e-01 0.000000e+00
-9.075000e-01 2.565000e-01 0.000000e+00
-7.260000e-01 2.565000e-01 0.000000e+00
-1.452000e+00 3.847500e-01 0.000000e+00
-1.270500e+00 3.847500e-01 0.000000e+00
-1.089000e+00 3.847500e-01 0.000000e+00
-9.075000e-01 3.847500e-01 0.000000e+00
-7.260000e-01 3.847500e-01 0.000000e+00
-1.452000e+00 5.130000e-01 0.000000e+00
-1.270500e+00 5.130000e-01 0.000000e+00
-1.089000e+00 5.130000e-01 0.000000e+00
-9.075000e-01 5.130000e-01 0.000000e+00
-7.260000e-01 5.130000e-01 0.000000e+00
-7.260000e-01 0.000000e+00 0.000000e+00
-5.445000e-01 0.000000e+00 0.000000e+00
-3.630000e-01 0.000000e+00 0.000000e+00
-1.815000e-01 0.000000e+00 0.000000e+00
0.000000e+00 0.000000e+00 0.000000e+00
-7.260000e-01 1.282500e-01 0.000000e+00
-5.445000e-01 1.282500e-01 0.000000e+00
-3.630000e-01 1.282500e-01 0.000000e+00
-1.815000e-01 1.282500e-01 0.000000e+00
0.000000e+00 1.282500e-01 0.000000e+00
-7.260000e-01 2.565000e-01 0.000000e+00
-5.445000e-01 2.565000e-01 0.000000e+00
-3.630000e-01 2.565000e-01 0.000000e+00
-1.815000e-01 2.565000e-01 0.000000e+00
0.000000e+00 2.565000e-01 0.000000e+00
-7.260000e-01 3.847500e-01 0.000000e+00
-5.445000e-01 3.847500e-01 0.000000e+00
-3.630000e-01 3.847500e-01 0.000000e+00
-1.815000e-01 3.847500e-01 0.000000e+00
0.000000e+00 3.847500e-01 0.000000e+00
-7.260000e-01 5.130000e-01 0.000000e+00
-5.445000e-01 5.130000e-01 0.000000e+00
-3.630000e-01 5.130000e-01 0.000000e+00
-1.815000e-01 5.130000e-01 0.000000e+00
0.000000e+00 5.130000e-01 0.000000e+00
0.000000e+00 0.000000e+00 0.000000e+00
1.815000e-01 0.000000e+00 0.000000e+00
3.630000e-01 0.000000e+00 0.000000e+00
5.445000e-01 0.000000e+00 0.000000e+00
7.260000e-01 0.000000e+00 0.000000e+00
0.000000e+00 1.282500e-01 0.000000e+00
1.815000e-01 1.282500e-01 0.000000e+00
3.630000e-01 1.282500e-01 0.000000e+00
5.445000e-01 1.282500e-01 0.000000e+00
7.260000e-01 1.282500e-01 0.000000e+00
0.000000e+00 2.565000e-01 0.000000e+00
1.815000e-01 2.565000e-01 0.000000e+00
3.630000e-01 2.565000e-01 0.000000e+00
5.445000e-01 2.565000e-01 0.000000e+00
7.260000e-01 2.565000e-01 0.000000e+00
0.000000e+00 3.847500e-01 0.000000e+00
1.815000e-01 3.847500e-01 0.000000e+00
3.630000e-01 3.847500e-01 0.000000e+00
5.445000e-01 3.847500e-01 0.000000e+00
7.260000e-01 3.847500e-01 0.000000e+00
0.000000e+00 5.130000e-01 0.000000e+00
1.815000e-01 5.130000e-01 0.000000e+00
3.630000e-01 5.130000e-01 0.000000e+00
5.445000e-01 5.130000e-01 0.000000e+00
7.260000e-01 5.130000e-01 0.000000e+00
7.260000e-01 0.000000e+00 0.000000e+00
9.075000e-01 0.000000e+00 0.000000e+00
1.089000e+00 0.000000e+00 0.000000e+00
1.270500e+00 0.000000e+00 0.000000e+00
1.452000e+00 0.000000e+00 0.000000e+00
7.260000e-01 1.282500e-01 0.000000e+00
9.075000e-01 1.282500e-01 0.000000e+00
1.089000e+00 1.282500e-01 0.000000e+00
1.270500e+00 1.282500e-01 0.000000e+00
1.452000e+00 1.282500e-01 0.000000e+00
7.260000e-01 2.565000e-01 0.000000e+00
9.075000e-01 2.565000e-01 0.000000e+00
1.089000e+00 2.565000e-01 0.000000e+00
1.270500e+00 2.565000e-01 0.000000e+00
1.452000e+00 2.565000e-01 0.000000e+00
7.260000e-01 3.847500e-01 0.000000e+00
9.075000e-01 3.847500e-01 0.000000e+00
1.089000e+00 3.847500e-01 0.000000e+00
1.270500e+00 3.847500e-01 0.000000e+00
1.452000e+00 3.847500e-01 0.000000e+00
7.260000e-01 5.130000e-01 0.000000e+00
9.075000e-01 5.130000e-01 0.000000e+00
1.089000e+00 5.130000e-01 0.000000e+00
1.270500e+00 5.130000e-01 0.000000e+00
1.452000e+00 5.130000e-01 0.000000e+00
1.452000e+00 0.000000e+00 0.000000e+00
1.633500e+00 0.000000e+00 0.000000e+00
1.815000e+00 0.000000e+00 0.000000e+00
1.996500e+00 0.000000e+00 0.000000e+00
2.178000e+00 0.000000e+00 0.000000e+00
1.452000e+00 1.282500e-01 0.000000e+00
1.633500e+00 1.282500e-01 0.000000e+00
1.815000e+00 1.282500e-01 0.000000e+00
1.996500e+00 1.282500e-01 0.000000e+00
2.178000e+00 1.282500e-01 0.000000e+00
1.452000e+00 2.565000e-01 0.000000e+00
1.633500e+00 2.565000e-01 0.000000e+00
1.815000e+00 2.565000e-01 0.000000e+00
1.996500e+00 2.565000e-01 0.000000e+00
2.178000e+00 2.565000e-01 0.000000e+00
1.452000e+00 3.847500e-01 0.000000e+00
1.633500e+00 3.847500e-01 0.000000e+00
1.815000e+00 3.847500e-01 0.000000e+00
1.996500e+00 3.847500e-01 0.000000e+00
2.178000e+00 3.847500e-01 0.000000e+00
1.452000e+00 5.130000e-01 0.000000e+00
1.633500e+00 5.130000e-01 0.000000e+00
1.815000e+00 5.130000e-01 0.000000e+00
1.996500e+00 5.130000e-01 0.000000e+00
2.178000e+00 5.130000e-01 0.000000e+00
2.178000e+00 0.000000e+00 0.000000e+00
2.359500e+00 0.000000e+00 0.000000e+00
2.541000e+00 0.000000e+00 0.000000e+00
2.722500e+00 0.000000e+00 0.000000e+00
2.904000e+00 0.000000e+00 0.000000e+00
2.178000e+00 1.282500e-01 0.000000e+00
2.359500e+00 1.282500e-01 0.000000e+00
2.541000e+00 1.282500e-01 0.000000e+00
2.722500e+00 1.282500e-01 0.000000e+00
2.904000e+00 1.282500e-01 0.000000e+00
2.178000e+00 2.565000e-01 0.000000e+00
2.359500e+00 2.565000e-01 0.000000e+00
2.541000e+00 2.565000e-01 0.000000e+00
2.722500e+00 2.565000e-01 0.000000e+00
2.904000e+00 2.565000e-01 0.000000e+00
2.178000e+00 3.847500e-01 0.000000e+00
2.359500e+00 3.847500e-01 0.000000e+00
2.541000e+00 3.847500e-01 0.000000e+00
2.722500e+00 3.847500e-01 0.000000e+00
2.904000e+00 3.847500e-01 0.000000e+00
2.178000e+00 5.130000e-01 0.000000e+00
2.359500e+00 5.130000e-01 0.000000e+00
2.541000e+00 5.130000e-01 0.000000e+00
2.722500e+00 5.130000e-01 0.000000e+00
2.904000e+00 5.130000e-01 0.000000e+00
2.904000e+00 0.000000e+00 0.000000e+00
3.085500e+00 0.000000e+00 0.000000e+00
3.267000e+00 0.000000e+00 0.000000e+00
3.448500e+00 0.000000e+00 0.000000e+00
3.630000e+00 0.000000e+00 0.000000e+00
2.904000e+00 1.282500e-01 0.000000e+00
3.085500e+00 1.282500e-01 0.000000e+00
3.267000e+00 1.282500e-01 0.000000e+00
3.448500e+00 1.282500e-01 0.000000e+00
3.630000e+00 1.282500e-01 0.000000e+00
2.904000e+00 2.565000e-01 0.000000e+00
3.085500e+00 2.565000e-01 0.000000e+00
3.267000e+00 2.565000e-01 0.000000e+00
3.448500e+00 2.565000e-01 0.000000e+00
3.630000e+00 2.565000e-01 0.000000e+00
2.904000e+00 3.847500e-01 0.000000e+00
3.085500e+00 3.847500e-01 0.000000e+00
3.267000e+00 3.847500e-01 0.000000e+00
3.448500e+00 3.847500e-01 0.000000e+00
3.630000e+00 3.847500e-01 0.000000e+00
2.904000e+00 5.130000e-01 0.000000e+00
[...]
<PointData>
<DataArray type="Float32" Name="V1" format="ascii">
0.000000e+00
0.000000e+00
0.000000e+00
0.000000e+00
0.000000e+00
1.264110e-02
1.103940e-02
9.667630e-03
8.525710e-03
7.613690e-03
2.028400e-02
1.823410e-02
1.641760e-02
1.483450e-02
1.348480e-02
2.292870e-02
2.158390e-02
2.024980e-02
1.892630e-02
1.761340e-02
2.057510e-02
2.108890e-02
2.116430e-02
2.080110e-02
1.999940e-02
0.000000e+00
0.000000e+00
0.000000e+00
0.000000e+00
0.000000e+00
7.613690e-03
6.593500e-03
5.834430e-03
5.336470e-03
5.099620e-03
1.348480e-02
1.196980e-02
1.080300e-02
9.984490e-03
9.514190e-03
1.761340e-02
1.612890e-02
1.490580e-02
1.394410e-02
1.324370e-02
1.999940e-02
1.907080e-02
1.814270e-02
1.721520e-02
1.628820e-02
0.000000e+00
0.000000e+00
0.000000e+00
0.000000e+00
0.000000e+00
5.099620e-03
4.929220e-03
4.796210e-03
4.700590e-03
4.642360e-03
9.514190e-03
9.175570e-03
8.877210e-03
8.619100e-03
8.401250e-03
1.324370e-02
1.273910e-02
1.224300e-02
1.175550e-02
1.127670e-02
1.628820e-02
1.561970e-02
1.489360e-02
1.410990e-02
1.326860e-02
0.000000e+00
0.000000e+00
0.000000e+00
0.000000e+00
0.000000e+00
4.642360e-03
3.648550e-03
3.764450e-03
4.990080e-03
7.325420e-03
8.401250e-03
6.444400e-03
6.410520e-03
8.299610e-03
1.211170e-02
1.127670e-02
8.387550e-03
7.938190e-03
9.928590e-03
1.435870e-02
1.326860e-02
9.478020e-03
8.347480e-03
9.877010e-03
1.406660e-02
0.000000e+00
0.000000e+00
0.000000e+00
0.000000e+00
0.000000e+00
7.325420e-03
5.445620e-03
1.084930e-03
-5.756650e-03
-1.507910e-02
1.211170e-02
7.450120e-03
-5.926900e-04
-1.201680e-02
-2.682210e-02
1.435870e-02
6.013510e-03
-5.032860e-03
-1.878040e-02
-3.522900e-02
1.406660e-02
1.135770e-03
-1.223560e-02
-2.604740e-02
-4.029980e-02
0.000000e+00
0.000000e+00
0.000000e+00
0.000000e+00
0.000000e+00
-1.507910e-02
-1.567540e-02
-1.638860e-02
-1.721890e-02
-1.816620e-02
-2.682210e-02
-2.663570e-02
-2.697470e-02
-2.783910e-02
-2.922880e-02
-3.522900e-02
-3.288100e-02
-3.175820e-02
-3.186060e-02
-3.318810e-02
-4.029980e-02
-3.441130e-02
-3.073920e-02
-2.928340e-02
-3.004380e-02
0.000000e+00
0.000000e+00
0.000000e+00
0.000000e+00
0.000000e+00
-1.816620e-02
-1.717800e-02
-1.502260e-02
-1.170000e-02
-7.210230e-03
-2.922880e-02
-2.735910e-02
-2.372930e-02
-1.833970e-02
-1.119020e-02
-3.318810e-02
-3.054320e-02
-2.612030e-02
-1.991920e-02
-1.193990e-02
-3.004380e-02
-2.673050e-02
-2.219530e-02
-1.643830e-02
-9.459410e-03
0.000000e+00
0.000000e+00
0.000000e+00
0.000000e+00
0.000000e+00
-7.210230e-03
-4.260010e-03
-1.739420e-03
3.515360e-04
2.012860e-03
-1.119020e-02
-6.378590e-03
-2.269720e-03
1.136400e-03
3.839770e-03
-1.193990e-02
-6.355730e-03
-1.590890e-03
2.354590e-03
5.480720e-03
-9.459410e-03
-4.191450e-03
2.970610e-04
4.006120e-03
6.935720e-03
0.000000e+00
0.000000e+00
0.000000e+00
0.000000e+00
0.000000e+00
2.012860e-03
3.855190e-03
5.301160e-03
6.350760e-03
7.004010e-03
3.839770e-03
6.860100e-03
9.249930e-03
1.100930e-02
1.213810e-02
5.480720e-03
9.014710e-03
1.184630e-02
1.397550e-02
1.540230e-02
6.935720e-03
1.031900e-02
1.309030e-02
1.524950e-02
1.679660e-02
0.000000e+00
0.000000e+00
0.000000e+00
0.000000e+00
0.000000e+00
7.004010e-03
7.596620e-03
8.218440e-03
8.869460e-03
9.549670e-03
1.213810e-02
1.321710e-02
1.430150e-02
1.539130e-02
1.648650e-02
1.540230e-02
1.686140e-02
1.824910e-02
1.956550e-02
2.081050e-02
1.679660e-02
1.852950e-02
2.006140e-02
2.139210e-02
2.252160e-02
2.057510e-02
2.108890e-02
2.116430e-02
2.080110e-02
1.999940e-02
2.078850e-02
2.097520e-02
2.100150e-02
2.086750e-02
2.057320e-02
2.103660e-02
2.096190e-02
2.091240e-02
2.088820e-02
2.088910e-02
2.131930e-02
2.104910e-02
2.089700e-02
2.086310e-02
2.094720e-02
2.163650e-02
2.123670e-02
2.095530e-02
2.079220e-02
2.074760e-02
1.999940e-02
1.907080e-02
1.814270e-02
1.721520e-02
1.628820e-02
2.057320e-02
2.011250e-02
1.955460e-02
1.889940e-02
1.814690e-02
2.088910e-02
2.075120e-02
2.047170e-02
2.005040e-02
1.948740e-02
2.094720e-02
2.098700e-02
2.089400e-02
2.066820e-02
2.030960e-02
2.074760e-02
2.081990e-02
2.082170e-02
2.075290e-02
2.061370e-02
1.628820e-02
1.561970e-02
1.489360e-02
1.410990e-02
1.326860e-02
1.814690e-02
1.738930e-02
1.653290e-02
1.557760e-02
1.452350e-02
1.948740e-02
1.863600e-02
1.770970e-02
1.670860e-02
1.563260e-02
2.030960e-02
1.935980e-02
1.842420e-02
1.750280e-02
1.659570e-02
2.061370e-02
1.956070e-02
1.867620e-02
1.796030e-02
1.741300e-02
1.326860e-02
9.478020e-03
8.347480e-03
9.877010e-03
1.406660e-02
1.452350e-02
1.031420e-02
8.687680e-03
9.643840e-03
1.318270e-02
1.563260e-02
1.107840e-02
9.072980e-03
9.616260e-03
1.270830e-02
1.659570e-02
1.177050e-02
9.503380e-03
9.794260e-03
1.264320e-02
1.741300e-02
1.239060e-02
9.978880e-03
1.017790e-02
1.298750e-02
1.406660e-02
1.135770e-03
-1.223560e-02
-2.604740e-02
-4.029980e-02
1.318270e-02
-2.171030e-03
-1.620590e-02
-2.892190e-02
-4.031910e-02
1.270830e-02
-3.511720e-03
-1.733360e-02
-2.875730e-02
-3.778290e-02
1.264320e-02
-2.886310e-03
-1.561850e-02
-2.555350e-02
-3.269120e-02
1.298750e-02
-2.947780e-04
-1.106080e-02
-1.931060e-02
-2.504410e-02
-4.029980e-02
-3.441130e-02
-3.073920e-02
-2.928340e-02
-3.004380e-02
-4.031910e-02
-3.313810e-02
-2.827220e-02
-2.572140e-02
-2.548550e-02
-3.778290e-02
-3.005010e-02
-2.443720e-02
-2.094410e-02
-1.957090e-02
-3.269120e-02
-2.514730e-02
-1.923410e-02
-1.495160e-02
-1.229990e-02
-2.504410e-02
-1.842970e-02
-1.266290e-02
-7.743920e-03
-3.672590e-03
-3.004380e-02
-2.673050e-02
-2.219530e-02
-1.643830e-02
-9.459410e-03
-2.548550e-02
-2.417470e-02
-2.084610e-02
-1.549970e-02
-8.135520e-03
-1.957090e-02
-1.974890e-02
-1.752070e-02
-1.288610e-02
-5.845310e-03
-1.229990e-02
-1.345330e-02
-1.221920e-02
-8.597710e-03
-2.588760e-03
-3.672590e-03
-5.287740e-03
-4.941670e-03
-2.634390e-03
1.634110e-03
-9.459410e-03
-4.191450e-03
2.970610e-04
4.006120e-03
6.935720e-03
-8.135520e-03
-2.621110e-03
1.942920e-03
5.556550e-03
8.219790e-03
-5.845310e-03
-3.205530e-04
4.126940e-03
7.497160e-03
9.790130e-03
-2.588760e-03
2.710210e-03
6.849120e-03
9.827960e-03
1.164670e-02
1.634110e-03
6.471190e-03
1.010950e-02
1.254890e-02
1.378960e-02
6.935720e-03
1.031900e-02
1.309030e-02
1.524950e-02
1.679660e-02
8.219790e-03
1.146360e-02
1.410330e-02
1.613910e-02
1.757100e-02
9.790130e-03
1.273590e-02
1.512260e-02
1.695030e-02
1.821880e-02
1.164670e-02
1.413610e-02
1.614820e-02
1.768290e-02
1.874020e-02
1.378960e-02
1.566420e-02
1.717990e-02
1.833690e-02
1.913510e-02
1.679660e-02
1.852950e-02
2.006140e-02
2.139210e-02
2.252160e-02
1.757100e-02
1.937510e-02
2.094870e-02
2.229180e-02
2.340440e-02
1.821880e-02
2.004370e-02
2.160730e-02
2.290970e-02
2.395090e-02
1.874020e-02
2.053530e-02
2.203710e-02
2.324570e-02
2.416100e-02
1.913510e-02
2.084990e-02
2.223810e-02
2.329980e-02
2.403490e-02
2.163650e-02
2.123670e-02
2.095530e-02
2.079220e-02
2.074760e-02
2.197900e-02
2.159170e-02
2.130440e-02
2.111710e-02
2.102980e-02
2.233590e-02
2.198650e-02
2.171420e-02
2.151910e-02
2.140110e-02
2.270730e-02
2.242110e-02
2.218480e-02
2.199820e-02
2.186160e-02
2.309330e-02
2.289550e-02
2.271590e-02
2.255450e-02
2.241120e-02
2.074760e-02
2.081990e-02
2.082170e-02
2.075290e-02
2.061370e-02
2.102980e-02
2.096300e-02
2.091450e-02
2.088430e-02
2.087250e-02
2.140110e-02
2.121600e-02
2.111720e-02
2.110460e-02
2.117830e-02
2.186160e-02
2.157900e-02
2.142970e-02
2.141370e-02
2.153110e-02
2.241120e-02
2.205190e-02
2.185210e-02
2.181180e-02
2.193090e-02
2.061370e-02
1.956070e-02
1.867620e-02
1.796030e-02
1.741300e-02
2.087250e-02
1.960210e-02
1.877070e-02
1.837830e-02
1.842490e-02
2.117830e-02
1.974570e-02
1.897220e-02
1.885770e-02
1.940240e-02
2.153110e-02
1.999150e-02
1.928070e-02
1.939870e-02
2.034560e-02
2.193090e-02
2.033950e-02
1.969630e-02
2.000130e-02
2.125440e-02
1.741300e-02
1.239060e-02
9.978880e-03
1.017790e-02
1.298750e-02
1.842490e-02
1.351150e-02
1.117620e-02
1.141890e-02
1.423960e-02
1.940240e-02
1.487050e-02
1.276030e-02
1.307180e-02
1.580500e-02
2.034560e-02
1.646760e-02
1.473130e-02
1.513660e-02
1.768360e-02
2.125440e-02
1.830270e-02
1.708900e-02
1.761330e-02
1.987550e-02
1.298750e-02
-2.947780e-04
-1.106080e-02
-1.931060e-02
-2.504410e-02
1.423960e-02
5.937950e-03
-1.523530e-03
-8.144810e-03
-1.392590e-02
1.580500e-02
1.234440e-02
8.110500e-03
3.103160e-03
-2.677590e-03
1.768360e-02
1.892470e-02
1.784130e-02
1.443330e-02
8.700850e-03
1.987550e-02
2.567880e-02
2.766880e-02
2.584570e-02
2.020940e-02
-2.504410e-02
-1.842970e-02
-1.266290e-02
-7.743920e-03
-3.672590e-03
-1.392590e-02
-1.036690e-02
-6.318640e-03
-1.781270e-03
3.245270e-03
-2.677590e-03
-1.508710e-03
1.297990e-03
5.742520e-03
1.182490e-02
8.700850e-03
8.144780e-03
1.018700e-02
1.482740e-02
2.206620e-02
2.020940e-02
1.859360e-02
2.034830e-02
2.547350e-02
3.396920e-02
-3.672590e-03
-5.287740e-03
-4.941670e-03
-2.634390e-03
1.634110e-03
3.245270e-03
1.923050e-03
1.884440e-03
3.129440e-03
5.658040e-03
1.182490e-02
1.040140e-02
9.601160e-03
9.424280e-03
9.870700e-03
2.206620e-02
2.014720e-02
1.820850e-02
1.625010e-02
1.427210e-02
3.396920e-02
3.116050e-02
2.770640e-02
2.360700e-02
1.886220e-02
1.634110e-03
6.471190e-03
1.010950e-02
1.254890e-02
1.378960e-02
5.658040e-03
1.024460e-02
1.354130e-02
1.554830e-02
1.626550e-02
9.870700e-03
1.399380e-02
1.682680e-02
1.836970e-02
1.862240e-02
1.427210e-02
1.771900e-02
1.996600e-02
2.101320e-02
2.086050e-02
1.886220e-02
2.142000e-02
2.295880e-02
2.347870e-02
2.297970e-02
1.378960e-02
1.566420e-02
1.717990e-02
1.833690e-02
1.913510e-02
1.626550e-02
1.733290e-02
1.825100e-02
1.901990e-02
1.963950e-02
1.862240e-02
1.896210e-02
1.933770e-02
1.974920e-02
2.019670e-02
2.086050e-02
2.055190e-02
2.044010e-02
2.052510e-02
2.080680e-02
2.297970e-02
2.210230e-02
2.155820e-02
2.134730e-02
2.146980e-02
1.913510e-02
2.084990e-02
2.223810e-02
2.329980e-02
2.403490e-02
1.963950e-02
2.134960e-02
2.265950e-02
2.356930e-02
2.407900e-02
2.019670e-02
2.186830e-02
2.308010e-02
2.383220e-02
2.412450e-02
2.080680e-02
2.240600e-02
2.349990e-02
2.408830e-02
2.417130e-02
2.146980e-02
2.296280e-02
2.391880e-02
2.433770e-02
2.421950e-02
2.309330e-02
2.289550e-02
2.271590e-02
2.255450e-02
2.241120e-02
2.348320e-02
2.331850e-02
2.317240e-02
2.304510e-02
2.293640e-02
2.386930e-02
2.372970e-02
2.361190e-02
2.351610e-02
2.344230e-02
2.425160e-02
2.412910e-02
2.403450e-02
2.396770e-02
2.392880e-02
2.463000e-02
2.451680e-02
2.444010e-02
2.439980e-02
2.439590e-02
2.241120e-02
2.205190e-02
2.185210e-02
2.181180e-02
2.193090e-02
2.293640e-02
2.256560e-02
2.235370e-02
2.230050e-02
2.240630e-02
2.344230e-02
2.307520e-02
2.286360e-02
2.280750e-02
2.290690e-02
2.392880e-02
2.358070e-02
2.338200e-02
2.333270e-02
2.343260e-02
2.439590e-02
2.408210e-02
2.390890e-02
2.387600e-02
2.398360e-02
2.193090e-02
2.033950e-02
1.969630e-02
2.000130e-02
2.125440e-02
2.240630e-02
2.102090e-02
2.046520e-02
2.073910e-02
2.184260e-02
2.290690e-02
2.176730e-02
2.131740e-02
2.155730e-02
2.248690e-02
2.343260e-02
2.257860e-02
2.225300e-02
2.245590e-02
2.318730e-02
2.398360e-02
2.345480e-02
2.327190e-02
2.343490e-02
2.394370e-02
2.125440e-02
1.830270e-02
1.708900e-02
1.761330e-02
1.987550e-02
2.184260e-02
1.988690e-02
1.920640e-02
1.980100e-02
2.167070e-02
2.248690e-02
2.131540e-02
2.105350e-02
2.170130e-02
2.325870e-02
2.318730e-02
2.258810e-02
2.263040e-02
2.331420e-02
2.463940e-02
2.394370e-02
2.370510e-02
2.393710e-02
2.463970e-02
2.581290e-02
1.987550e-02
2.567880e-02
2.766880e-02
2.584570e-02
2.020940e-02
2.167070e-02
2.995740e-02
3.476100e-02
3.608160e-02
3.391910e-02
2.325870e-02
3.263020e-02
3.916080e-02
4.285050e-02
4.369940e-02
2.463940e-02
3.369710e-02
4.086810e-02
4.615260e-02
4.955030e-02
2.581290e-02
3.315820e-02
3.988310e-02
4.598770e-02
5.147200e-02
2.020940e-02
1.859360e-02
2.034830e-02
2.547350e-02
3.396920e-02
3.391910e-02
3.329180e-02
3.499420e-02
3.902630e-02
4.538810e-02
4.369940e-02
4.423180e-02
4.601240e-02
4.904120e-02
5.331820e-02
4.955030e-02
5.141370e-02
5.340300e-02
5.551830e-02
5.775950e-02
5.147200e-02
5.483750e-02
5.716600e-02
5.845750e-02
5.871200e-02
3.396920e-02
3.116050e-02
2.770640e-02
2.360700e-02
1.886220e-02
4.538810e-02
3.991890e-02
3.433520e-02
2.863700e-02
2.282430e-02
5.331820e-02
4.601970e-02
3.908550e-02
3.251570e-02
2.631020e-02
5.775950e-02
4.946270e-02
4.195720e-02
3.524290e-02
2.931980e-02
5.871200e-02
5.024810e-02
4.295030e-02
3.681870e-02
3.185320e-02
1.886220e-02
2.142000e-02
2.295880e-02
2.347870e-02
2.297970e-02
2.282430e-02
2.450290e-02
2.536950e-02
2.542420e-02
2.466690e-02
2.631020e-02
2.722420e-02
2.749690e-02
2.712830e-02
2.611850e-02
2.931980e-02
2.958390e-02
2.934100e-02
2.859120e-02
2.733450e-02
3.185320e-02
3.158190e-02
3.090180e-02
2.981280e-02
2.831490e-02
2.297970e-02
2.210230e-02
2.155820e-02
2.134730e-02
2.146980e-02
2.466690e-02
2.352040e-02
2.274670e-02
2.234560e-02
2.231720e-02
2.611850e-02
2.477820e-02
2.383540e-02
2.329010e-02
2.314220e-02
2.733450e-02
2.587560e-02
2.482440e-02
2.418070e-02
2.394470e-02
2.831490e-02
2.681270e-02
2.571360e-02
2.501760e-02
2.472480e-02
2.146980e-02
2.296280e-02
2.391880e-02
2.433770e-02
2.421950e-02
2.231720e-02
2.351250e-02
2.425920e-02
2.455730e-02
2.440670e-02
2.314220e-02
2.404630e-02
2.459060e-02
2.477510e-02
2.459970e-02
2.394470e-02
2.456430e-02
2.491310e-02
2.499120e-02
2.479850e-02
2.472480e-02
2.506630e-02
2.522650e-02
2.520550e-02
2.500330e-02
2.463000e-02
2.451680e-02
2.444010e-02
2.439980e-02
2.439590e-02
2.499690e-02
2.490780e-02
2.485320e-02
2.483320e-02
2.484770e-02
2.534870e-02
2.528690e-02
2.525630e-02
2.525670e-02
2.528820e-02
2.568540e-02
2.565420e-02
2.564920e-02
2.567030e-02
2.571740e-02
2.600690e-02
2.600970e-02
2.603200e-02
2.607390e-02
2.613530e-02
2.439590e-02
2.408210e-02
2.390890e-02
2.387600e-02
2.398360e-02
2.484770e-02
2.458640e-02
2.444830e-02
2.443350e-02
2.454180e-02
2.528820e-02
2.507910e-02
2.497710e-02
2.498220e-02
2.509450e-02
2.571740e-02
2.556020e-02
2.549510e-02
2.552230e-02
2.564170e-02
2.613530e-02
2.602960e-02
2.600240e-02
2.605370e-02
2.618340e-02
2.398360e-02
2.345480e-02
2.327190e-02
2.343490e-02
2.394370e-02
2.454180e-02
2.421550e-02
2.416400e-02
2.438720e-02
2.488510e-02
2.509450e-02
2.492280e-02
2.497610e-02
2.525450e-02
2.575780e-02
2.564170e-02
2.557660e-02
2.570830e-02
2.603680e-02
2.656200e-02
2.618340e-02
2.617700e-02
2.636050e-02
2.673400e-02
2.729750e-02
2.394370e-02
2.370510e-02
2.393710e-02
2.463970e-02
2.581290e-02
2.488510e-02
2.493810e-02
2.537600e-02
2.619880e-02
2.740640e-02
2.575780e-02
2.610010e-02
2.673710e-02
2.766900e-02
2.889570e-02
2.656200e-02
2.719100e-02
2.802050e-02
2.905040e-02
3.028070e-02
2.729750e-02
2.821100e-02
2.922610e-02
3.034290e-02
3.156130e-02
2.581290e-02
3.315820e-02
3.988310e-02
4.598770e-02
5.147200e-02
2.740640e-02
3.348040e-02
3.923330e-02
4.466510e-02
4.977580e-02
2.889570e-02
3.387250e-02
3.872360e-02
4.344890e-02
4.804850e-02
3.028070e-02
3.433450e-02
3.835410e-02
4.233920e-02
4.629000e-02
3.156130e-02
3.486650e-02
3.812470e-02
4.133600e-02
4.450030e-02
5.147200e-02
5.483750e-02
5.716600e-02
5.845750e-02
5.871200e-02
4.977580e-02
5.335140e-02
5.570370e-02
5.683290e-02
5.673880e-02
4.804850e-02
5.151040e-02
5.371240e-02
5.465450e-02
5.433660e-02
4.629000e-02
4.931460e-02
5.119200e-02
5.192220e-02
5.150540e-02
4.450030e-02
4.676390e-02
4.814250e-02
4.863620e-02
4.824500e-02
5.871200e-02
5.024810e-02
4.295030e-02
3.681870e-02
3.185320e-02
5.673880e-02
4.967230e-02
4.351870e-02
3.827800e-02
3.395030e-02
5.433660e-02
4.867510e-02
4.365900e-02
3.928830e-02
3.556290e-02
5.150540e-02
4.725660e-02
4.337130e-02
3.984950e-02
3.669110e-02
4.824500e-02
4.541670e-02
4.265560e-02
3.996160e-02
3.733490e-02
3.185320e-02
3.158190e-02
3.090180e-02
2.981280e-02
2.831490e-02
3.395030e-02
3.298050e-02
3.182200e-02
3.047490e-02
2.893920e-02
3.556290e-02
3.402940e-02
3.249960e-02
3.097360e-02
2.945130e-02
3.669110e-02
3.472860e-02
3.293450e-02
3.130870e-02
2.985140e-02
3.733490e-02
3.507810e-02
3.312660e-02
3.148030e-02
3.013940e-02
2.831490e-02
2.681270e-02
2.571360e-02
2.501760e-02
2.472480e-02
2.893920e-02
2.761340e-02
2.659780e-02
2.589260e-02
2.549770e-02
2.945130e-02
2.829690e-02
2.736710e-02
2.666190e-02
2.618120e-02
2.985140e-02
2.886350e-02
2.802140e-02
2.732530e-02
2.677510e-02
3.013940e-02
2.931290e-02
2.856080e-02
2.788300e-02
2.727950e-02
2.472480e-02
2.506630e-02
2.522650e-02
2.520550e-02
2.500330e-02
2.549770e-02
2.555360e-02
2.552720e-02
2.541850e-02
2.522740e-02
2.618120e-02
2.599030e-02
2.580470e-02
2.562410e-02
2.544870e-02
2.677510e-02
2.637650e-02
2.605890e-02
2.582240e-02
2.566700e-02
2.727950e-02
2.671190e-02
2.628990e-02
2.601340e-02
2.588240e-02
2.600690e-02
2.600970e-02
2.603200e-02
2.607390e-02
2.613530e-02
2.630990e-02
2.634440e-02
2.639400e-02
2.645860e-02
2.653830e-02
2.659390e-02
2.665850e-02
2.673360e-02
2.681940e-02
2.691590e-02
2.685910e-02
2.695180e-02
2.705090e-02
2.715630e-02
2.726810e-02
2.710540e-02
2.722450e-02
2.734570e-02
2.746920e-02
2.759480e-02
2.613530e-02
2.602960e-02
2.600240e-02
2.605370e-02
2.618340e-02
2.653830e-02
2.646830e-02
2.647140e-02
2.654760e-02
2.669700e-02
2.691590e-02
2.687790e-02
2.690740e-02
2.700430e-02
2.716860e-02
2.726810e-02
2.725850e-02
2.731030e-02
2.742350e-02
2.759810e-02
2.759480e-02
2.761000e-02
2.768020e-02
2.780540e-02
2.798560e-02
2.618340e-02
2.617700e-02
2.636050e-02
2.673400e-02
2.729750e-02
2.669700e-02
2.675590e-02
2.698130e-02
2.737340e-02
2.793220e-02
2.716860e-02
2.728940e-02
2.755140e-02
2.795450e-02
2.849860e-02
2.759810e-02
2.777770e-02
2.807070e-02
2.847710e-02
2.899690e-02
2.798560e-02
2.822060e-02
2.853920e-02
2.894140e-02
2.942700e-02
2.729750e-02
2.821100e-02
2.922610e-02
3.034290e-02
3.156130e-02
2.793220e-02
2.890610e-02
2.997460e-02
3.113740e-02
3.239470e-02
2.849860e-02
2.947190e-02
3.053650e-02
3.169240e-02
3.293960e-02
2.899690e-02
2.990830e-02
3.091200e-02
3.200790e-02
3.319600e-02
2.942700e-02
3.021540e-02
3.110100e-02
3.208380e-02
3.316380e-02
3.156130e-02
3.486650e-02
3.812470e-02
4.133600e-02
4.450030e-02
3.239470e-02
3.516870e-02
3.787060e-02
4.050050e-02
4.305820e-02
3.293960e-02
3.526090e-02
3.749080e-02
3.962930e-02
4.167630e-02
3.319600e-02
3.514310e-02
3.698520e-02
3.872240e-02
4.035460e-02
3.316380e-02
3.481520e-02
3.635380e-02
3.777980e-02
3.909300e-02
4.450030e-02
4.676390e-02
4.814250e-02
4.863620e-02
4.824500e-02
4.305820e-02
4.482950e-02
4.589500e-02
4.625470e-02
4.590860e-02
4.167630e-02
4.307060e-02
4.390450e-02
4.417810e-02
4.389130e-02
4.035460e-02
4.148710e-02
4.217100e-02
4.240640e-02
4.219320e-02
3.909300e-02
4.007890e-02
4.069440e-02
4.093950e-02
4.081420e-02
4.824500e-02
4.541670e-02
4.265560e-02
3.996160e-02
3.733490e-02
4.590860e-02
4.366600e-02
4.145110e-02
3.926410e-02
3.710490e-02
4.389130e-02
4.213260e-02
4.036770e-02
3.859670e-02
3.681970e-02
4.219320e-02
4.081650e-02
3.940530e-02
3.795950e-02
3.647920e-02
4.081420e-02
3.971770e-02
3.856380e-02
3.735230e-02
3.608340e-02
3.733490e-02
3.507810e-02
3.312660e-02
3.148030e-02
3.013940e-02
3.710490e-02
3.509870e-02
3.333590e-02
3.181650e-02
3.054040e-02
3.681970e-02
3.504760e-02
3.346520e-02
3.207230e-02
3.086900e-02
3.647920e-02
3.492480e-02
3.351430e-02
3.224770e-02
3.112500e-02
3.608340e-02
3.473030e-02
3.348340e-02
3.234280e-02
3.130850e-02
3.013940e-02
2.931290e-02
2.856080e-02
2.788300e-02
2.727950e-02
3.054040e-02
2.969910e-02
2.893270e-02
2.824110e-02
2.762440e-02
3.086900e-02
3.001480e-02
2.923770e-02
2.853770e-02
2.791480e-02
3.112500e-02
3.025990e-02
2.947580e-02
2.877280e-02
2.815080e-02
3.130850e-02
3.043440e-02
2.964700e-02
2.894630e-02
2.833240e-02
2.727950e-02
2.671190e-02
2.628990e-02
2.601340e-02
2.588240e-02
2.762440e-02
2.704730e-02
2.659520e-02
2.626810e-02
2.606580e-02
2.791480e-02
2.734140e-02
2.687050e-02
2.650200e-02
2.623590e-02
2.815080e-02
2.759420e-02
2.711560e-02
2.671510e-02
2.639270e-02
2.833240e-02
2.780560e-02
2.733060e-02
2.690750e-02
2.653620e-02
2.710540e-02
2.722450e-02
2.734570e-02
2.746920e-02
2.759480e-02
2.733260e-02
2.746750e-02
2.760390e-02
2.774170e-02
2.788100e-02
2.754220e-02
2.769060e-02
2.783950e-02
2.798890e-02
2.813880e-02
2.773410e-02
2.789360e-02
2.805240e-02
2.821070e-02
2.836830e-02
2.790840e-02