<?xml version="1.0"?>
<VTKFile type="UnstructuredGrid" version="0.1" byte_order="LittleEndian" compressor="vtkZLibDataCompressor">
<UnstructuredGrid>
<Piece NumberOfPoints="2500" NumberOfCells="1600">
<Points>
<DataArray type="Float32" NumberOfComponents="3" format="ascii">
-3.630000e+00 0.000000e+00 0.000000e+00
-3.448500e+00 0.000000e+00 0.000000e+00
-3.267000e+00 0.000000e+00 0.000000e+00
-3.085500e+00 0.000000e+00 0.000000e+00
-2.904000e+00 0.000000e+00 0.000000e+00
-3.630000e+00 1.282500e-01 0.000000e+00
-3.448500e+00 1.282500e-01 0.000000e+00
-3.267000e+00 1.282500e-01 0.000000e+00
-3.085500e+00 1.282500e-01 0.000000e+00
-2.904000e+00 1.282500e-01 0.000000e+00
-3.630000e+00 2.565000e-01 0.000000e+00
-3.448500e+00 2.565000e-01 0.000000e+00
-3.267000e+00 2.565000e-01 0.000000e+00
-3.085500e+00 2.565000e-01 0.000000e+00
-2.904000e+00 2.565000e-01 0.000000e+00
-3.630000e+00 3.847500e-01 0.000000e+00
-3.448500e+00 3.847500e-01 0.000000e+00
-3.267000e+00 3.847500e-01 0.000000e+00
-3.085500e+00 3.847500e-01 0.000000e+00
-2.904000e+00 3.847500e-01 0.000000e+00
-3.630000e+00 5.130000e-01 0.000000e+00
-3.448500e+00 5.130000e-01 0.000000e+00
-3.267000e+00 5.130000e-01 0.000000e+00
-3.085500e+00 5.130000e-01 0.000000e+00
-2.904000e+00 5.130000e-01 0.000000e+00
-2.904000e+00 0.000000e+00 0.000000e+00
-2.722500e+00 0.000000e+00 0.000000e+00
-2.541000e+00 0.000000e+00 0.000000e+00
-2.359500e+00 0.000000e+00 0.000000e+00
-2.178000e+00 0.000000e+00 0.000000e+00
-2.904000e+00 1.282500e-01 0.000000e+00
-2.722500e+00 1.282500e-01 0.000000e+00
-2.541000e+00 1.282500e-01 0.000000e+00
-2.359500e+00 1.282500e-01 0.000000e+00
-2.178000e+00 1.282500e-01 0.000000e+00
-2.904000e+00 2.565000e-01 0.000000e+00
-2.722500e+00 2.565000e-01 0.000000e+00
-2.541000e+00 2.565000e-01 0.000000e+00
-2.359500e+00 2.565000e-01 0.000000e+00
-2.178000e+00 2.565000e-01 0.000000e+00
-2.904000e+00 3.847500e-01 0.000000e+00
-2.722500e+00 3.847500e-01 0.000000e+00
-2.541000e+00 3.847500e-01 0.000000e+00
-2.359500e+00 3.847500e-01 0.000000e+00
-2.178000e+00 3.847500e-01 0.000000e+00
-2.904000e+00 5.130000e-01 0.000000e+00
-2.722500e+00 5.130000e-01 0.000000e+00
-2.541000e+00 5.130000e-01 0.000000e+00
-2.359500e+00 5.130000e-01 0.000000e+00
-2.178000e+00 5.130000e-01 0.000000e+00
-2.178000e+00 0.000000e+00 0.000000e+00
-1.996500e+00 0.000000e+00 0.000000e+00
-1.815000e+00 0.000000e+00 0.000000e+00
-1.633500e+00 0.000000e+00 0.000000e+00
-1.452000e+00 0.000000e+00 0.000000e+00
-2.178000e+00 1.282500e-01 0.000000e+00
-1.996500e+00 1.282500e-01 0.000000e+00
-1.815000e+00 1.282500e-01 0.000000e+00
-1.633500e+00 1.282500e-01 0.000000e+00
-1.452000e+00 1.282500e-01 0.000000e+00
-2.178000e+00 2.565000e-01 0.000000e+00
-1.996500e+00 2.565000e-01 0.000000e+00
-1.815000e+00 2.565000e-01 0.000000e+00
-1.633500e+00 2.565000e-01 0.000000e+00
-1.452000e+00 2.565000e-01 0.000000e+00
-2.178000e+00 3.847500e-01 0.000000e+00
-1.996500e+00 3.847500e-01 0.000000e+00
-1.815000e+00 3.847500e-01 0.000000e+00
-1.633500e+00 3.847500e-01 0.000000e+00
-1.452000e+00 3.847500e-01 0.000000e+00
-2.178000e+00 5.130000e-01 0.000000e+00
-1.996500e+00 5.130000e-01 0.000000e+00
-1.815000e+00 5.130000e-01 0.000000e+00
-1.633500e+00 5.130000e-01 0.000000e+00
-1.452000e+00 5.130000e-01 0.000000e+00
-1.452000e+00 0.000000e+00 0.000000e+00
-1.270500e+00 0.000000e+00 0.000000e+00
-1.089000e+00 0.000000e+00 0.000000e+00
-9.075000e-01 0.000000e+00 0.000000e+00
-7.260000e-01 0.000000e+00 0.000000e+00
-1.452000e+00 1.282500e-01 0.000000e+00
-1.270500e+00 1.282500e-01 0.000000e+00
-1.089000e+00 1.282500e-01 0.000000e+00
-9.075000e-01 1.282500e-01 0.000000e+00
-7.260000e-01 1.282500e-01 0.000000e+00
-1.452000e+00 2.565000e-01 0.000000e+00
-1.270500e+00 2.565000e-01 0.000000e+00
-1.089000e+00 2.565000e-01 0.000000e+00
-9.075000e-01 2.565000e-01 0.000000e+00
-7.260000e-01 2.565000e-01 0.000000e+00
-1.452000e+00 3.847500e-01 0.000000e+00
-1.270500e+00 3.847500e-01 0.000000e+00
-1.089000e+00 3.847500e-01 0.000000e+00
-9.075000e-01 3.847500e-01 0.000000e+00
-7.260000e-01 3.847500e-01 0.000000e+00
-1.452000e+00 5.130000e-01 0.000000e+00
-1.270500e+00 5.130000e-01 0.000000e+00
-1.089000e+00 5.130000e-01 0.000000e+00
-9.075000e-01 5.130000e-01 0.000000e+00
-7.260000e-01 5.130000e-01 0.000000e+00
-7.260000e-01 0.000000e+00 0.000000e+00
-5.445000e-01 0.000000e+00 0.000000e+00
-3.630000e-01 0.000000e+00 0.000000e+00
-1.815000e-01 0.000000e+00 0.000000e+00
0.000000e+00 0.000000e+00 0.000000e+00
-7.260000e-01 1.282500e-01 0.000000e+00
-5.445000e-01 1.282500e-01 0.000000e+00
-3.630000e-01 1.282500e-01 0.000000e+00
-1.815000e-01 1.282500e-01 0.000000e+00
0.000000e+00 1.282500e-01 0.000000e+00
-7.260000e-01 2.565000e-01 0.000000e+00
-5.445000e-01 2.565000e-01 0.000000e+00
-3.630000e-01 2.565000e-01 0.000000e+00
-1.815000e-01 2.565000e-01 0.000000e+00
0.000000e+00 2.565000e-01 0.000000e+00
-7.260000e-01 3.847500e-01 0.000000e+00
-5.445000e-01 3.847500e-01 0.000000e+00
-3.630000e-01 3.847500e-01 0.000000e+00
-1.815000e-01 3.847500e-01 0.000000e+00
0.000000e+00 3.847500e-01 0.000000e+00
-7.260000e-01 5.130000e-01 0.000000e+00
-5.445000e-01 5.130000e-01 0.000000e+00
-3.630000e-01 5.130000e-01 0.000000e+00
-1.815000e-01 5.130000e-01 0.000000e+00
0.000000e+00 5.130000e-01 0.000000e+00
0.000000e+00 0.000000e+00 0.000000e+00
1.815000e-01 0.000000e+00 0.000000e+00
3.630000e-01 0.000000e+00 0.000000e+00
5.445000e-01 0.000000e+00 0.000000e+00
7.260000e-01 0.000000e+00 0.000000e+00
0.000000e+00 1.282500e-01 0.000000e+00
1.815000e-01 1.282500e-01 0.000000e+00
3.630000e-01 1.282500e-01 0.000000e+00
5.445000e-01 1.282500e-01 0.000000e+00
7.260000e-01 1.282500e-01 0.000000e+00
0.000000e+00 2.565000e-01 0.000000e+00
1.815000e-01 2.565000e-01 0.000000e+00
3.630000e-01 2.565000e-01 0.000000e+00
5.445000e-01 2.565000e-01 0.000000e+00
7.260000e-01 2.565000e-01 0.000000e+00
0.000000e+00 3.847500e-01 0.000000e+00
1.815000e-01 3.847500e-01 0.000000e+00
3.630000e-01 3.847500e-01 0.000000e+00
5.445000e-01 3.847500e-01 0.000000e+00
7.260000e-01 3.847500e-01 0.000000e+00
0.000000e+00 5.130000e-01 0.000000e+00
1.815000e-01 5.130000e-01 0.000000e+00
3.630000e-01 5.130000e-01 0.000000e+00
5.445000e-01 5.130000e-01 0.000000e+00
7.260000e-01 5.130000e-01 0.000000e+00
7.260000e-01 0.000000e+00 0.000000e+00
9.075000e-01 0.000000e+00 0.000000e+00
1.089000e+00 0.000000e+00 0.000000e+00
1.270500e+00 0.000000e+00 0.000000e+00
1.452000e+00 0.000000e+00 0.000000e+00
7.260000e-01 1.282500e-01 0.000000e+00
9.075000e-01 1.282500e-01 0.000000e+00
1.089000e+00 1.282500e-01 0.000000e+00
1.270500e+00 1.282500e-01 0.000000e+00
1.452000e+00 1.282500e-01 0.000000e+00
7.260000e-01 2.565000e-01 0.000000e+00
9.075000e-01 2.565000e-01 0.000000e+00
1.089000e+00 2.565000e-01 0.000000e+00
1.270500e+00 2.565000e-01 0.000000e+00
1.452000e+00 2.565000e-01 0.000000e+00
7.260000e-01 3.847500e-01 0.000000e+00
9.075000e-01 3.847500e-01 0.000000e+00
1.089000e+00 3.847500e-01 0.000000e+00
1.270500e+00 3.847500e-01 0.000000e+00
1.452000e+00 3.847500e-01 0.000000e+00
7.260000e-01 5.130000e-01 0.000000e+00
9.075000e-01 5.130000e-01 0.000000e+00
1.089000e+00 5.130000e-01 0.000000e+00
1.270500e+00 5.130000e-01 0.000000e+00
1.452000e+00 5.130000e-01 0.000000e+00
1.452000e+00 0.000000e+00 0.000000e+00
1.633500e+00 0.000000e+00 0.000000e+00
1.815000e+00 0.000000e+00 0.000000e+00
1.996500e+00 0.000000e+00 0.000000e+00
2.178000e+00 0.000000e+00 0.000000e+00
1.452000e+00 1.282500e-01 0.000000e+00
1.633500e+00 1.282500e-01 0.000000e+00
1.815000e+00 1.282500e-01 0.000000e+00
1.996500e+00 1.282500e-01 0.000000e+00
2.178000e+00 1.282500e-01 0.000000e+00
1.452000e+00 2.565000e-01 0.000000e+00
1.633500e+00 2.565000e-01 0.000000e+00
1.815000e+00 2.565000e-01 0.000000e+00
1.996500e+00 2.565000e-01 0.000000e+00
2.178000e+00 2.565000e-01 0.000000e+00
1.452000e+00 3.847500e-01 0.000000e+00
1.633500e+00 3.847500e-01 0.000000e+00
1.815000e+00 3.847500e-01 0.000000e+00
1.996500e+00 3.847500e-01 0.000000e+00
2.178000e+00 3.847500e-01 0.000000e+00
1.452000e+00 5.130000e-01 0.000000e+00
1.633500e+00 5.130000e-01 0.000000e+00
1.815000e+00 5.130000e-01 0.000000e+00
1.996500e+00 5.130000e-01 0.000000e+00
2.178000e+00 5.130000e-01 0.000000e+00
2.178000e+00 0.000000e+00 0.000000e+00
2.359500e+00 0.000000e+00 0.000000e+00
2.541000e+00 0.000000e+00 0.000000e+00
2.722500e+00 0.000000e+00 0.000000e+00
2.904000e+00 0.000000e+00 0.000000e+00
2.178000e+00 1.282500e-01 0.000000e+00
2.359500e+00 1.282500e-01 0.000000e+00
2.541000e+00 1.282500e-01 0.000000e+00
2.722500e+00 1.282500e-01 0.000000e+00
2.904000e+00 1.282500e-01 0.000000e+00
2.178000e+00 2.565000e-01 0.000000e+00
2.359500e+00 2.565000e-01 0.000000e+00
2.541000e+00 2.565000e-01 0.000000e+00
2.722500e+00 2.565000e-01 0.000000e+00
2.904000e+00 2.565000e-01 0.000000e+00
2.178000e+00 3.847500e-01 0.000000e+00
2.359500e+00 3.847500e-01 0.000000e+00
2.541000e+00 3.847500e-01 0.000000e+00
2.722500e+00 3.847500e-01 0.000000e+00
2.904000e+00 3.847500e-01 0.000000e+00
2.178000e+00 5.130000e-01 0.000000e+00
2.359500e+00 5.130000e-01 0.000000e+00
2.541000e+00 5.130000e-01 0.000000e+00
2.722500e+00 5.130000e-01 0.000000e+00
2.904000e+00 5.130000e-01 0.000000e+00
2.904000e+00 0.000000e+00 0.000000e+00
3.085500e+00 0.000000e+00 0.000000e+00
3.267000e+00 0.000000e+00 0.000000e+00
3.448500e+00 0.000000e+00 0.000000e+00
3.630000e+00 0.000000e+00 0.000000e+00
2.904000e+00 1.282500e-01 0.000000e+00
3.085500e+00 1.282500e-01 0.000000e+00
3.267000e+00 1.282500e-01 0.000000e+00
3.448500e+00 1.282500e-01 0.000000e+00
3.630000e+00 1.282500e-01 0.000000e+00
2.904000e+00 2.565000e-01 0.000000e+00
3.085500e+00 2.565000e-01 0.000000e+00
3.267000e+00 2.565000e-01 0.000000e+00
3.448500e+00 2.565000e-01 0.000000e+00
3.630000e+00 2.565000e-01 0.000000e+00
2.904000e+00 3.847500e-01 0.000000e+00
3.085500e+00 3.847500e-01 0.000000e+00
3.267000e+00 3.847500e-01 0.000000e+00
3.448500e+00 3.847500e-01 0.000000e+00
3.630000e+00 3.847500e-01 0.000000e+00
2.904000e+00 5.130000e-01 0.000000e+00
[...]
<PointData>
<DataArray type="Float32" Name="V1" format="ascii">
2.018460e-02
1.939610e-02
1.844140e-02
1.732060e-02
1.603370e-02
2.021030e-02
1.943390e-02
1.849370e-02
1.738980e-02
1.612220e-02
2.028400e-02
1.952200e-02
1.860630e-02
1.753690e-02
1.631380e-02
2.040560e-02
1.966040e-02
1.877920e-02
1.776180e-02
1.660840e-02
2.057510e-02
1.984920e-02
1.901240e-02
1.806470e-02
1.700600e-02
1.603370e-02
1.488970e-02
1.312040e-02
1.072580e-02
7.705760e-03
1.612220e-02
1.492850e-02
1.317680e-02
1.086700e-02
7.999220e-03
1.631380e-02
1.506210e-02
1.335330e-02
1.118760e-02
8.564800e-03
1.660840e-02
1.529030e-02
1.364990e-02
1.168730e-02
9.402490e-03
1.700600e-02
1.561320e-02
1.406670e-02
1.236640e-02
1.051230e-02
7.705760e-03
1.810580e-03
-1.390630e-03
-1.897860e-03
2.888930e-04
7.999220e-03
2.312800e-03
-8.466600e-04
-1.479160e-03
4.152890e-04
8.564800e-03
3.114410e-03
4.678190e-05
-6.380810e-04
1.059820e-03
9.402490e-03
4.215400e-03
1.289700e-03
6.253910e-04
2.222480e-03
1.051230e-02
5.615770e-03
2.882080e-03
2.311250e-03
3.903280e-03
2.888930e-04
-1.520800e-02
-2.993720e-02
-4.389870e-02
-5.709240e-02
4.152890e-04
-1.399520e-02
-2.750690e-02
-4.011970e-02
-5.183360e-02
1.059820e-03
-1.221640e-02
-2.472510e-02
-3.646620e-02
-4.743970e-02
2.222480e-03
-9.871590e-03
-2.159180e-02
-3.293820e-02
-4.391070e-02
3.903280e-03
-6.960760e-03
-1.810710e-02
-2.953570e-02
-4.124650e-02
-5.709240e-02
-6.258040e-02
-6.866010e-02
-7.533150e-02
-8.259460e-02
-5.183360e-02
-6.076050e-02
-7.027090e-02
-8.036480e-02
-9.104230e-02
-4.743970e-02
-5.922600e-02
-7.137560e-02
-8.388860e-02
-9.676490e-02
-4.391070e-02
-5.797700e-02
-7.197430e-02
-8.590280e-02
-9.976240e-02
-4.124650e-02
-5.701340e-02
-7.206700e-02
-8.640740e-02
-1.000350e-01
-8.259460e-02
-7.345790e-02
-6.332970e-02
-5.221020e-02
-4.009920e-02
-9.104230e-02
-8.058860e-02
-6.873670e-02
-5.548680e-02
-4.083880e-02
-9.676490e-02
-8.545650e-02
-7.232500e-02
-5.737030e-02
-4.059260e-02
-9.976240e-02
-8.806160e-02
-7.409430e-02
-5.786070e-02
-3.936060e-02
-1.000350e-01
-8.840380e-02
-7.404490e-02
-5.695790e-02
-3.714280e-02
-4.009920e-02
-3.174680e-02
-2.411430e-02
-1.720180e-02
-1.100920e-02
-4.083880e-02
-3.158970e-02
-2.355060e-02
-1.672140e-02
-1.110210e-02
-4.059260e-02
-3.006570e-02
-2.156510e-02
-1.509090e-02
-1.064290e-02
-3.936060e-02
-2.717470e-02
-1.815800e-02
-1.231040e-02
-9.631840e-03
-3.714280e-02
-2.291680e-02
-1.332910e-02
-8.379770e-03
-8.068790e-03
-1.100920e-02
-2.829910e-03
3.193600e-03
7.061310e-03
8.773210e-03
-1.110210e-02
-2.751120e-03
3.379740e-03
7.290520e-03
8.981220e-03
-1.064290e-02
-2.225020e-03
3.934370e-03
7.835210e-03
9.477530e-03
-9.631840e-03
-1.251590e-03
4.857490e-03
8.695400e-03
1.026210e-02
-8.068790e-03
1.691540e-04
6.149110e-03
9.871080e-03
1.133500e-02
8.773210e-03
1.131820e-02
1.352800e-02
1.540240e-02
1.694160e-02
8.981220e-03
1.141420e-02
1.355080e-02
1.539130e-02
1.693540e-02
9.477530e-03
1.172810e-02
1.373630e-02
1.550190e-02
1.702500e-02
1.026210e-02
1.226020e-02
1.408420e-02
1.573430e-02
1.721040e-02
1.133500e-02
1.301020e-02
1.459470e-02
1.608850e-02
1.749160e-02
1.694160e-02
1.815720e-02
1.929800e-02
2.036380e-02
2.135470e-02
1.693540e-02
1.817730e-02
1.932770e-02
2.038660e-02
2.135410e-02
1.702500e-02
1.828020e-02
1.942770e-02
2.046730e-02
2.139910e-02
1.721040e-02
1.846610e-02
1.959800e-02
2.060590e-02
2.148990e-02
1.749160e-02
1.873490e-02
1.983850e-02
2.080240e-02
2.162640e-02
2.057510e-02
1.984920e-02
1.901240e-02
1.806470e-02
1.700600e-02
2.078850e-02
2.008560e-02
1.930990e-02
1.846160e-02
1.754060e-02
2.103660e-02
2.035340e-02
1.964490e-02
1.891100e-02
1.815170e-02
2.131930e-02
2.065280e-02
2.001730e-02
1.941290e-02
1.883940e-02
2.163650e-02
2.098370e-02
2.042720e-02
1.996720e-02
1.960360e-02
1.700600e-02
1.561320e-02
1.406670e-02
1.236640e-02
1.051230e-02
1.754060e-02
1.612240e-02
1.471480e-02
1.331790e-02
1.193160e-02
1.815170e-02
1.669670e-02
1.543920e-02
1.437940e-02
1.351720e-02
1.883940e-02
1.733610e-02
1.623990e-02
1.555090e-02
1.526910e-02
1.960360e-02
1.804060e-02
1.711690e-02
1.683250e-02
1.718750e-02
1.051230e-02
5.615770e-03
2.882080e-03
2.311250e-03
3.903280e-03
1.193160e-02
7.110120e-03
4.706510e-03
4.720720e-03
7.152760e-03
1.351720e-02
8.677840e-03
6.626780e-03
7.363990e-03
1.088950e-02
1.526910e-02
1.031890e-02
8.642890e-03
1.024110e-02
1.511340e-02
1.718750e-02
1.203340e-02
1.075490e-02
1.335190e-02
1.982460e-02
3.903280e-03
-6.960760e-03
-1.810710e-02
-2.953570e-02
-4.124650e-02
7.152760e-03
-3.398100e-03
-1.323870e-02
-2.236890e-02
-3.078880e-02
1.088950e-02
7.108130e-04
-7.529760e-03
-1.383220e-02
-1.819660e-02
1.511340e-02
5.365980e-03
-9.803810e-04
-3.925690e-03
-3.469950e-03
1.982460e-02
1.056740e-02
6.409470e-03
7.350730e-03
1.339120e-02
-4.124650e-02
-5.701340e-02
-7.206700e-02
-8.640740e-02
-1.000350e-01
-3.078880e-02
-4.582820e-02
-6.163560e-02
-7.821090e-02
-9.555410e-02
-1.819660e-02
-3.144520e-02
-4.568510e-02
-6.091630e-02
-7.713880e-02
-3.469950e-03
-1.386430e-02
-2.421550e-02
-3.452370e-02
-4.478880e-02
1.339120e-02
6.914560e-03
2.773130e-03
9.669230e-04
1.495930e-03
-1.000350e-01
-8.840380e-02
-7.404490e-02
-5.695790e-02
-3.714280e-02
-9.555410e-02
-7.976360e-02
-6.414040e-02
-4.868430e-02
-3.339540e-02
-7.713880e-02
-6.121960e-02
-4.728150e-02
-3.532450e-02
-2.534860e-02
-4.478880e-02
-3.277170e-02
-2.346820e-02
-1.687840e-02
-1.300230e-02
1.495930e-03
5.580080e-03
7.299400e-03
6.653870e-03
3.643490e-03
-3.714280e-02
-2.291680e-02
-1.332910e-02
-8.379770e-03
-8.068790e-03
-3.339540e-02
-1.888160e-02
-9.602330e-03
-5.557570e-03
-6.747320e-03
-2.534860e-02
-1.249300e-02
-4.771650e-03
-2.184600e-03
-4.731820e-03
-1.300230e-02
-3.750860e-03
1.162950e-03
1.739140e-03
-2.022270e-03
3.643490e-03
7.344740e-03
8.201460e-03
6.213650e-03
1.381310e-03
-8.068790e-03
1.691540e-04
6.149110e-03
9.871080e-03
1.133500e-02
-6.747320e-03
1.959480e-03
8.056930e-03
1.154500e-02
1.242380e-02
-4.731820e-03
4.139850e-03
1.017360e-02
1.336950e-02
1.372750e-02
-2.022270e-03
6.710260e-03
1.249920e-02
1.534450e-02
1.524610e-02
1.381310e-03
9.670730e-03
1.503360e-02
1.746990e-02
1.697970e-02
1.133500e-02
1.301020e-02
1.459470e-02
1.608850e-02
1.749160e-02
1.242380e-02
1.376960e-02
1.511800e-02
1.646920e-02
1.782310e-02
1.372750e-02
1.469290e-02
1.576320e-02
1.693820e-02
1.821810e-02
1.524610e-02
1.578040e-02
1.653020e-02
1.749560e-02
1.867670e-02
1.697970e-02
1.703180e-02
1.741900e-02
1.814140e-02
1.919890e-02
1.749160e-02
1.873490e-02
1.983850e-02
2.080240e-02
2.162640e-02
1.782310e-02
1.904820e-02
2.011010e-02
2.100870e-02
2.174410e-02
1.821810e-02
1.941750e-02
2.043100e-02
2.125850e-02
2.190000e-02
1.867670e-02
1.984280e-02
2.080100e-02
2.155150e-02
2.209430e-02
1.919890e-02
2.032400e-02
2.122040e-02
2.188800e-02
2.232680e-02
2.163650e-02
2.098370e-02
2.042720e-02
1.996720e-02
1.960360e-02
2.197900e-02
2.136110e-02
2.089380e-02
2.057690e-02
2.041060e-02
2.233590e-02
2.176940e-02
2.138790e-02
2.119120e-02
2.117960e-02
2.270730e-02
2.220850e-02
2.190940e-02
2.181020e-02
2.191060e-02
2.309330e-02
2.267840e-02
2.245850e-02
2.243370e-02
2.260380e-02
1.960360e-02
1.804060e-02
1.711690e-02
1.683250e-02
1.718750e-02
2.041060e-02
1.877810e-02
1.801780e-02
1.812960e-02
1.911350e-02
2.117960e-02
1.956630e-02
1.896370e-02
1.937180e-02
2.079050e-02
2.191060e-02
2.040520e-02
1.995470e-02
2.055920e-02
2.221850e-02
2.260380e-02
2.129480e-02
2.099080e-02
2.169170e-02
2.339750e-02
1.718750e-02
1.203340e-02
1.075490e-02
1.335190e-02
1.982460e-02
1.911350e-02
1.385750e-02
1.292460e-02
1.631470e-02
2.402790e-02
2.079050e-02
1.580460e-02
1.520850e-02
1.900220e-02
2.718570e-02
2.221850e-02
1.787460e-02
1.760650e-02
2.141430e-02
2.929800e-02
2.339750e-02
2.006760e-02
2.011880e-02
2.355120e-02
3.036480e-02
1.982460e-02
1.056740e-02
6.409470e-03
7.350730e-03
1.339120e-02
2.402790e-02
1.486510e-02
1.249960e-02
1.693130e-02
2.816030e-02
2.718570e-02
1.911800e-02
1.820580e-02
2.444910e-02
3.784800e-02
2.929800e-02
2.332610e-02
2.352820e-02
2.990420e-02
4.245420e-02
3.036480e-02
2.748940e-02
2.846670e-02
3.329660e-02
4.197910e-02
1.339120e-02
6.914560e-03
2.773130e-03
9.669230e-04
1.495930e-03
2.816030e-02
3.036230e-02
3.424230e-02
3.980020e-02
4.703600e-02
3.784800e-02
4.701320e-02
5.680890e-02
6.723520e-02
7.829200e-02
4.245420e-02
5.686720e-02
7.047320e-02
8.327210e-02
9.526410e-02
4.197910e-02
5.992440e-02
7.523500e-02
8.791090e-02
9.795210e-02
1.495930e-03
5.580080e-03
7.299400e-03
6.653870e-03
3.643490e-03
4.703600e-02
4.093510e-02
3.406490e-02
2.642530e-02
1.801640e-02
7.829200e-02
6.636380e-02
5.439480e-02
4.238510e-02
3.033450e-02
9.526410e-02
8.186620e-02
6.828920e-02
5.453310e-02
4.059790e-02
9.795210e-02
8.744220e-02
7.574800e-02
6.286940e-02
4.880650e-02
3.643490e-03
7.344740e-03
8.201460e-03
6.213650e-03
1.381310e-03
1.801640e-02
1.801530e-02
1.610060e-02
1.227250e-02
6.530900e-03
3.033450e-02
2.699990e-02
2.273280e-02
1.753320e-02
1.140110e-02
4.059790e-02
3.429860e-02
2.809790e-02
2.199560e-02
1.599180e-02
4.880650e-02
3.991150e-02
3.219590e-02
2.565980e-02
2.030320e-02
1.381310e-03
9.670730e-03
1.503360e-02
1.746990e-02
1.697970e-02
6.530900e-03
1.282240e-02
1.693770e-02
1.887660e-02
1.863930e-02
1.140110e-02
1.589400e-02
1.885580e-02
2.028650e-02
2.018600e-02
1.599180e-02
1.888560e-02
2.078810e-02
2.169950e-02
2.161980e-02
2.030320e-02
2.179700e-02
2.273460e-02
2.311580e-02
2.294070e-02
1.697970e-02
1.703180e-02
1.741900e-02
1.814140e-02
1.919890e-02
1.863930e-02
1.835880e-02
1.844570e-02
1.890010e-02
1.972190e-02
2.018600e-02
1.964180e-02
1.947750e-02
1.969310e-02
2.028840e-02
2.161980e-02
2.088100e-02
2.051440e-02
2.052020e-02
2.089830e-02
2.294070e-02
2.207620e-02
2.155640e-02
2.138160e-02
2.155160e-02
1.919890e-02
2.032400e-02
2.122040e-02
2.188800e-02
2.232680e-02
1.972190e-02
2.081690e-02
2.165720e-02
2.224290e-02
2.257400e-02
2.028840e-02
2.133360e-02
2.210610e-02
2.260590e-02
2.283300e-02
2.089830e-02
2.187430e-02
2.256720e-02
2.297700e-02
2.310380e-02
2.155160e-02
2.243880e-02
2.304040e-02
2.335630e-02
2.338660e-02
2.309330e-02
2.267840e-02
2.245850e-02
2.243370e-02
2.260380e-02
2.348320e-02
2.313840e-02
2.298080e-02
2.301050e-02
2.322730e-02
2.386930e-02
2.359080e-02
2.349110e-02
2.357030e-02
2.382830e-02
2.425160e-02
2.403560e-02
2.398940e-02
2.411310e-02
2.440670e-02
2.463000e-02
2.447270e-02
2.447570e-02
2.463900e-02
2.496250e-02
2.260380e-02
2.129480e-02
2.099080e-02
2.169170e-02
2.339750e-02
2.322730e-02
2.220170e-02
2.203140e-02
2.271640e-02
2.425670e-02
2.382830e-02
2.307360e-02
2.302450e-02
2.368100e-02
2.504320e-02
2.440670e-02
2.391030e-02
2.396990e-02
2.458550e-02
2.575690e-02
2.496250e-02
2.471200e-02
2.486780e-02
2.542970e-02
2.639800e-02
2.339750e-02
2.006760e-02
2.011880e-02
2.355120e-02
3.036480e-02
2.425670e-02
2.210860e-02
2.245600e-02
2.529900e-02
3.063760e-02
2.504320e-02
2.396940e-02
2.458240e-02
2.688200e-02
3.086830e-02
2.575690e-02
2.565020e-02
2.649800e-02
2.830020e-02
3.105690e-02
2.639800e-02
2.715100e-02
2.820290e-02
2.955370e-02
3.120350e-02
3.036480e-02
2.748940e-02
2.846670e-02
3.329660e-02
4.197910e-02
3.063760e-02
3.070620e-02
3.303610e-02
3.762730e-02
4.447990e-02
3.086830e-02
3.304380e-02
3.627670e-02
4.056700e-02
4.591470e-02
3.105690e-02
3.450230e-02
3.818840e-02
4.211550e-02
4.628340e-02
3.120350e-02
3.508160e-02
3.877140e-02
4.227280e-02
4.558600e-02
4.197910e-02
5.992440e-02
7.523500e-02
8.791090e-02
9.795210e-02
4.447990e-02
5.894260e-02
7.189630e-02
8.334110e-02
9.327680e-02
4.591470e-02
5.711880e-02
6.746370e-02
7.694920e-02
8.557530e-02
4.628340e-02
5.445310e-02
6.193700e-02
6.873520e-02
7.484770e-02
4.558600e-02
5.094520e-02
5.531630e-02
5.869920e-02
6.109380e-02
9.795210e-02
8.744220e-02
7.574800e-02
6.286940e-02
4.880650e-02
9.327680e-02
8.235630e-02
7.104530e-02
5.934370e-02
4.725160e-02
8.557530e-02
7.585290e-02
6.626620e-02
5.681500e-02
4.749960e-02
7.484770e-02
6.793210e-02
6.141070e-02
5.528350e-02
4.955040e-02
6.109380e-02
5.859380e-02
5.647880e-02
5.474900e-02
5.340420e-02
4.880650e-02
3.991150e-02
3.219590e-02
2.565980e-02
2.030320e-02
4.725160e-02
4.046090e-02
3.419240e-02
2.844590e-02
2.322160e-02
4.749960e-02
4.166320e-02
3.607530e-02
3.073580e-02
2.564480e-02
4.955040e-02
4.351820e-02
3.784460e-02
3.252940e-02
2.757270e-02
5.340420e-02
4.602610e-02
3.950020e-02
3.382670e-02
2.900550e-02
2.030320e-02
2.179700e-02
2.273460e-02
2.311580e-02
2.294070e-02
2.322160e-02
2.407360e-02
2.452230e-02
2.456760e-02
2.420940e-02
2.564480e-02
2.603590e-02
2.611100e-02
2.587020e-02
2.531330e-02
2.757270e-02
2.768380e-02
2.750080e-02
2.702370e-02
2.625250e-02
2.900550e-02
2.901740e-02
2.869150e-02
2.802800e-02
2.702690e-02
2.294070e-02
2.207620e-02
2.155640e-02
2.138160e-02
2.155160e-02
2.420940e-02
2.318270e-02
2.251910e-02
2.221850e-02
2.228100e-02
2.531330e-02
2.417720e-02
2.341150e-02
2.301610e-02
2.299110e-02
2.625250e-02
2.505950e-02
2.423350e-02
2.377430e-02
2.368210e-02
2.702690e-02
2.582980e-02
2.498520e-02
2.449330e-02
2.435390e-02
2.155160e-02
2.243880e-02
2.304040e-02
2.335630e-02
2.338660e-02
2.228100e-02
2.299600e-02
2.346980e-02
2.370230e-02
2.369350e-02
2.299110e-02
2.353700e-02
2.388660e-02
2.403970e-02
2.399650e-02
2.368210e-02
2.406190e-02
2.429070e-02
2.436850e-02
2.429540e-02
2.435390e-02
2.457050e-02
2.468210e-02
2.468870e-02
2.459030e-02
2.463000e-02
2.447270e-02
2.447570e-02
2.463900e-02
2.496250e-02
2.499690e-02
2.489750e-02
2.494530e-02
2.514010e-02
2.548210e-02
2.534870e-02
2.530350e-02
2.539230e-02
2.561520e-02
2.597200e-02
2.568540e-02
2.569060e-02
2.581690e-02
2.606410e-02
2.643220e-02
2.600690e-02
2.605890e-02
2.621890e-02
2.648680e-02
2.686280e-02
2.496250e-02
2.471200e-02
2.486780e-02
2.542970e-02
2.639800e-02
2.548210e-02
2.540440e-02
2.564520e-02
2.620450e-02
2.708230e-02
2.597200e-02
2.604080e-02
2.635520e-02
2.691550e-02
2.772140e-02
2.643220e-02
2.662110e-02
2.699780e-02
2.756250e-02
2.831520e-02
2.686280e-02
2.714540e-02
2.757300e-02
2.814580e-02
2.886360e-02
2.639800e-02
2.715100e-02
2.820290e-02
2.955370e-02
3.120350e-02
2.708230e-02
2.814350e-02
2.931890e-02
3.060850e-02
3.201240e-02
2.772140e-02
2.894730e-02
3.018210e-02
3.142600e-02
3.267900e-02
2.831520e-02
2.956230e-02
3.079260e-02
3.200620e-02
3.320310e-02
2.886360e-02
2.998850e-02
3.115030e-02
3.234910e-02
3.358490e-02
3.120350e-02
3.508160e-02
3.877140e-02
4.227280e-02
4.558600e-02
3.201240e-02
3.554890e-02
3.880350e-02
4.177620e-02
4.446700e-02
3.267900e-02
3.586410e-02
3.872970e-02
4.127560e-02
4.350190e-02
3.320310e-02
3.602720e-02
3.854980e-02
4.077100e-02
4.269060e-02
3.358490e-02
3.603820e-02
3.826400e-02
4.026230e-02
4.203310e-02
4.558600e-02
5.094520e-02
5.531630e-02
5.869920e-02
6.109380e-02
4.446700e-02
4.872880e-02
5.236530e-02
5.537670e-02
5.776290e-02
4.350190e-02
4.686970e-02
4.984330e-02
5.242280e-02
5.460830e-02
4.269060e-02
4.536800e-02
4.775030e-02
4.983770e-02
5.163000e-02
4.203310e-02
4.422360e-02
4.608640e-02
4.762120e-02
4.882820e-02
6.109380e-02
5.859380e-02
5.647880e-02
5.474900e-02
5.340420e-02
5.776290e-02
5.590410e-02
5.389120e-02
5.172400e-02
4.940250e-02
5.460830e-02
5.314420e-02
5.129480e-02
4.906030e-02
4.644060e-02
5.163000e-02
5.031390e-02
4.868990e-02
4.675810e-02
4.451850e-02
4.882820e-02
4.741330e-02
4.607630e-02
4.481730e-02
4.363620e-02
5.340420e-02
4.602610e-02
3.950020e-02
3.382670e-02
2.900550e-02
4.940250e-02
4.374290e-02
3.874820e-02
3.441850e-02
3.075370e-02
4.644060e-02
4.217570e-02
3.837330e-02
3.503330e-02
3.215580e-02
4.451850e-02
4.132450e-02
3.837540e-02
3.567120e-02
3.321200e-02
4.363620e-02
4.118920e-02
3.875450e-02
3.633210e-02
3.392210e-02
2.900550e-02
2.901740e-02
2.869150e-02
2.802800e-02
2.702690e-02
3.075370e-02
3.024930e-02
2.955640e-02
2.867500e-02
2.760500e-02
3.215580e-02
3.122290e-02
3.023620e-02
2.919570e-02
2.810140e-02
3.321200e-02
3.193810e-02
3.073080e-02
2.959010e-02
2.851600e-02
3.392210e-02
3.239490e-02
3.104030e-02
2.985830e-02
2.884880e-02
2.702690e-02
2.582980e-02
2.498520e-02
2.449330e-02
2.435390e-02
2.760500e-02
2.654990e-02
2.576850e-02
2.526070e-02
2.502670e-02
2.810140e-02
2.718360e-02
2.646680e-02
2.595090e-02
2.563590e-02
2.851600e-02
2.773090e-02
2.708020e-02
2.656380e-02
2.618160e-02
2.884880e-02
2.819190e-02
2.760870e-02
2.709930e-02
2.666370e-02
2.435390e-02
2.457050e-02
2.468210e-02
2.468870e-02
2.459030e-02
2.502670e-02
2.506150e-02
2.505300e-02
2.500120e-02
2.490610e-02
2.563590e-02
2.551190e-02
2.539940e-02
2.529840e-02
2.520910e-02
2.618160e-02
2.592170e-02
2.572130e-02
2.558040e-02
2.549910e-02
2.666370e-02
2.629080e-02
2.601860e-02
2.584710e-02
2.577610e-02
2.600690e-02
2.605890e-02
2.621890e-02
2.648680e-02
2.686280e-02
2.630990e-02
2.639710e-02
2.658200e-02
2.686470e-02
2.724510e-02
2.659390e-02
2.671290e-02
2.691920e-02
2.721270e-02
2.759340e-02
2.685910e-02
2.700650e-02
2.723040e-02
2.753090e-02
2.790780e-02
2.710540e-02
2.727780e-02
2.751570e-02
2.781920e-02
2.818830e-02
2.686280e-02
2.714540e-02
2.757300e-02
2.814580e-02
2.886360e-02
2.724510e-02
2.758150e-02
2.803770e-02
2.861360e-02
2.930920e-02
2.759340e-02
2.796950e-02
2.844350e-02
2.901540e-02
2.968520e-02
2.790780e-02
2.830920e-02
2.879020e-02
2.935100e-02
2.999150e-02
2.818830e-02
2.860060e-02
2.907800e-02
2.962060e-02
3.022820e-02
2.886360e-02
2.998850e-02
3.115030e-02
3.234910e-02
3.358490e-02
2.930920e-02
3.039440e-02
3.149620e-02
3.261450e-02
3.374940e-02
2.968520e-02
3.073080e-02
3.177330e-02
3.281280e-02
3.384920e-02
2.999150e-02
3.099740e-02
3.198150e-02
3.294390e-02
3.388440e-02
3.022820e-02
3.119440e-02
3.212100e-02
3.300780e-02
3.385500e-02
3.358490e-02
3.603820e-02
3.826400e-02
4.026230e-02
4.203310e-02
3.374940e-02
3.595900e-02
3.793650e-02
3.968170e-02
4.119470e-02
3.384920e-02
3.580490e-02
3.754060e-02
3.905660e-02
4.035260e-02
3.388440e-02
3.557570e-02
3.707650e-02
3.838690e-02
3.950680e-02
3.385500e-02
3.527160e-02
3.654410e-02
3.767270e-02
3.865730e-02
4.203310e-02
4.422360e-02
4.608640e-02
4.762120e-02
4.882820e-02
4.119470e-02
4.304740e-02
4.458140e-02
4.579670e-02
4.669330e-02
4.035260e-02
4.189550e-02
4.314720e-02
4.410770e-02
4.477690e-02
3.950680e-02
4.076810e-02
4.178390e-02
4.255420e-02
4.307900e-02
3.865730e-02
3.966510e-02
4.049140e-02
4.113620e-02
4.159960e-02
4.882820e-02
4.741330e-02
4.607630e-02
4.481730e-02
4.363620e-02
4.669330e-02
4.544550e-02
4.423570e-02
4.306410e-02
4.193040e-02
4.477690e-02
4.374270e-02
4.270700e-02
4.166970e-02
4.063100e-02
4.307900e-02
4.230490e-02
4.149000e-02
4.063430e-02
3.973780e-02
4.159960e-02
4.113210e-02
4.058480e-02
3.995770e-02
3.925090e-02
4.363620e-02
4.118920e-02
3.875450e-02
3.633210e-02
3.392210e-02
4.193040e-02
3.992440e-02
3.794540e-02
3.599330e-02
3.406810e-02
4.063100e-02
3.895210e-02
3.731080e-02
3.570730e-02
3.414130e-02
3.973780e-02
3.827220e-02
3.685090e-02
3.547410e-02
3.414170e-02
3.925090e-02
3.788470e-02
3.656560e-02
3.529390e-02
3.406930e-02
3.392210e-02
3.239490e-02
3.104030e-02
2.985830e-02
2.884880e-02
3.406810e-02
3.267330e-02
3.141030e-02
3.027930e-02
2.928010e-02
3.414130e-02
3.286740e-02
3.169400e-02
3.062110e-02
2.964880e-02
3.414170e-02
3.297730e-02
3.189130e-02
3.088380e-02
2.995480e-02
3.406930e-02
3.300300e-02
3.200240e-02
3.106740e-02
3.019810e-02
2.884880e-02
2.819190e-02
2.760870e-02
2.709930e-02
2.666370e-02
2.928010e-02
2.861890e-02
2.802580e-02
2.750090e-02
2.704420e-02
2.964880e-02
2.898370e-02
2.838330e-02
2.784780e-02
2.737700e-02
2.995480e-02
2.928630e-02
2.868140e-02
2.814010e-02
2.766240e-02
3.019810e-02
2.952670e-02
2.891990e-02
2.837770e-02
2.790020e-02
2.666370e-02
2.629080e-02
2.601860e-02
2.584710e-02
2.577610e-02
2.704420e-02
2.665680e-02
2.635780e-02
2.614740e-02
2.602530e-02
2.737700e-02
2.698540e-02
2.666800e-02
2.642500e-02
2.625630e-02
2.766240e-02
2.727660e-02
2.694920e-02
2.667990e-02
2.646900e-02
2.790020e-02
2.753060e-02
2.720130e-02
2.691220e-02
2.666340e-02
2.710540e-02
2.727780e-02
2.751570e-02
2.781920e-02
2.818830e-02
2.733260e-02
2.751940e-02
2.776490e-02
2.806920e-02
2.843210e-02
2.754220e-02
2.774050e-02
2.799100e-02
2.829370e-02
2.864870e-02
2.773410e-02
2.794110e-02
2.819400e-02
2.849300e-02