<?xml version="1.0"?>
<VTKFile type="UnstructuredGrid" version="0.1" byte_order="LittleEndian" compressor="vtkZLibDataCompressor">
<UnstructuredGrid>
<Piece NumberOfPoints="2500" NumberOfCells="1600">
<Points>
<DataArray type="Float32" NumberOfComponents="3" format="ascii">
-3.630000e+00 0.000000e+00 0.000000e+00
-3.448500e+00 0.000000e+00 0.000000e+00
-3.267000e+00 0.000000e+00 0.000000e+00
-3.085500e+00 0.000000e+00 0.000000e+00
-2.904000e+00 0.000000e+00 0.000000e+00
-3.630000e+00 1.282500e-01 0.000000e+00
-3.448500e+00 1.282500e-01 0.000000e+00
-3.267000e+00 1.282500e-01 0.000000e+00
-3.085500e+00 1.282500e-01 0.000000e+00
-2.904000e+00 1.282500e-01 0.000000e+00
-3.630000e+00 2.565000e-01 0.000000e+00
-3.448500e+00 2.565000e-01 0.000000e+00
-3.267000e+00 2.565000e-01 0.000000e+00
-3.085500e+00 2.565000e-01 0.000000e+00
-2.904000e+00 2.565000e-01 0.000000e+00
-3.630000e+00 3.847500e-01 0.000000e+00
-3.448500e+00 3.847500e-01 0.000000e+00
-3.267000e+00 3.847500e-01 0.000000e+00
-3.085500e+00 3.847500e-01 0.000000e+00
-2.904000e+00 3.847500e-01 0.000000e+00
-3.630000e+00 5.130000e-01 0.000000e+00
-3.448500e+00 5.130000e-01 0.000000e+00
-3.267000e+00 5.130000e-01 0.000000e+00
-3.085500e+00 5.130000e-01 0.000000e+00
-2.904000e+00 5.130000e-01 0.000000e+00
-2.904000e+00 0.000000e+00 0.000000e+00
-2.722500e+00 0.000000e+00 0.000000e+00
-2.541000e+00 0.000000e+00 0.000000e+00
-2.359500e+00 0.000000e+00 0.000000e+00
-2.178000e+00 0.000000e+00 0.000000e+00
-2.904000e+00 1.282500e-01 0.000000e+00
-2.722500e+00 1.282500e-01 0.000000e+00
-2.541000e+00 1.282500e-01 0.000000e+00
-2.359500e+00 1.282500e-01 0.000000e+00
-2.178000e+00 1.282500e-01 0.000000e+00
-2.904000e+00 2.565000e-01 0.000000e+00
-2.722500e+00 2.565000e-01 0.000000e+00
-2.541000e+00 2.565000e-01 0.000000e+00
-2.359500e+00 2.565000e-01 0.000000e+00
-2.178000e+00 2.565000e-01 0.000000e+00
-2.904000e+00 3.847500e-01 0.000000e+00
-2.722500e+00 3.847500e-01 0.000000e+00
-2.541000e+00 3.847500e-01 0.000000e+00
-2.359500e+00 3.847500e-01 0.000000e+00
-2.178000e+00 3.847500e-01 0.000000e+00
-2.904000e+00 5.130000e-01 0.000000e+00
-2.722500e+00 5.130000e-01 0.000000e+00
-2.541000e+00 5.130000e-01 0.000000e+00
-2.359500e+00 5.130000e-01 0.000000e+00
-2.178000e+00 5.130000e-01 0.000000e+00
-2.178000e+00 0.000000e+00 0.000000e+00
-1.996500e+00 0.000000e+00 0.000000e+00
-1.815000e+00 0.000000e+00 0.000000e+00
-1.633500e+00 0.000000e+00 0.000000e+00
-1.452000e+00 0.000000e+00 0.000000e+00
-2.178000e+00 1.282500e-01 0.000000e+00
-1.996500e+00 1.282500e-01 0.000000e+00
-1.815000e+00 1.282500e-01 0.000000e+00
-1.633500e+00 1.282500e-01 0.000000e+00
-1.452000e+00 1.282500e-01 0.000000e+00
-2.178000e+00 2.565000e-01 0.000000e+00
-1.996500e+00 2.565000e-01 0.000000e+00
-1.815000e+00 2.565000e-01 0.000000e+00
-1.633500e+00 2.565000e-01 0.000000e+00
-1.452000e+00 2.565000e-01 0.000000e+00
-2.178000e+00 3.847500e-01 0.000000e+00
-1.996500e+00 3.847500e-01 0.000000e+00
-1.815000e+00 3.847500e-01 0.000000e+00
-1.633500e+00 3.847500e-01 0.000000e+00
-1.452000e+00 3.847500e-01 0.000000e+00
-2.178000e+00 5.130000e-01 0.000000e+00
-1.996500e+00 5.130000e-01 0.000000e+00
-1.815000e+00 5.130000e-01 0.000000e+00
-1.633500e+00 5.130000e-01 0.000000e+00
-1.452000e+00 5.130000e-01 0.000000e+00
-1.452000e+00 0.000000e+00 0.000000e+00
-1.270500e+00 0.000000e+00 0.000000e+00
-1.089000e+00 0.000000e+00 0.000000e+00
-9.075000e-01 0.000000e+00 0.000000e+00
-7.260000e-01 0.000000e+00 0.000000e+00
-1.452000e+00 1.282500e-01 0.000000e+00
-1.270500e+00 1.282500e-01 0.000000e+00
-1.089000e+00 1.282500e-01 0.000000e+00
-9.075000e-01 1.282500e-01 0.000000e+00
-7.260000e-01 1.282500e-01 0.000000e+00
-1.452000e+00 2.565000e-01 0.000000e+00
-1.270500e+00 2.565000e-01 0.000000e+00
-1.089000e+00 2.565000e-01 0.000000e+00
-9.075000e-01 2.565000e-01 0.000000e+00
-7.260000e-01 2.565000e-01 0.000000e+00
-1.452000e+00 3.847500e-01 0.000000e+00
-1.270500e+00 3.847500e-01 0.000000e+00
-1.089000e+00 3.847500e-01 0.000000e+00
-9.075000e-01 3.847500e-01 0.000000e+00
-7.260000e-01 3.847500e-01 0.000000e+00
-1.452000e+00 5.130000e-01 0.000000e+00
-1.270500e+00 5.130000e-01 0.000000e+00
-1.089000e+00 5.130000e-01 0.000000e+00
-9.075000e-01 5.130000e-01 0.000000e+00
-7.260000e-01 5.130000e-01 0.000000e+00
-7.260000e-01 0.000000e+00 0.000000e+00
-5.445000e-01 0.000000e+00 0.000000e+00
-3.630000e-01 0.000000e+00 0.000000e+00
-1.815000e-01 0.000000e+00 0.000000e+00
0.000000e+00 0.000000e+00 0.000000e+00
-7.260000e-01 1.282500e-01 0.000000e+00
-5.445000e-01 1.282500e-01 0.000000e+00
-3.630000e-01 1.282500e-01 0.000000e+00
-1.815000e-01 1.282500e-01 0.000000e+00
0.000000e+00 1.282500e-01 0.000000e+00
-7.260000e-01 2.565000e-01 0.000000e+00
-5.445000e-01 2.565000e-01 0.000000e+00
-3.630000e-01 2.565000e-01 0.000000e+00
-1.815000e-01 2.565000e-01 0.000000e+00
0.000000e+00 2.565000e-01 0.000000e+00
-7.260000e-01 3.847500e-01 0.000000e+00
-5.445000e-01 3.847500e-01 0.000000e+00
-3.630000e-01 3.847500e-01 0.000000e+00
-1.815000e-01 3.847500e-01 0.000000e+00
0.000000e+00 3.847500e-01 0.000000e+00
-7.260000e-01 5.130000e-01 0.000000e+00
-5.445000e-01 5.130000e-01 0.000000e+00
-3.630000e-01 5.130000e-01 0.000000e+00
-1.815000e-01 5.130000e-01 0.000000e+00
0.000000e+00 5.130000e-01 0.000000e+00
0.000000e+00 0.000000e+00 0.000000e+00
1.815000e-01 0.000000e+00 0.000000e+00
3.630000e-01 0.000000e+00 0.000000e+00
5.445000e-01 0.000000e+00 0.000000e+00
7.260000e-01 0.000000e+00 0.000000e+00
0.000000e+00 1.282500e-01 0.000000e+00
1.815000e-01 1.282500e-01 0.000000e+00
3.630000e-01 1.282500e-01 0.000000e+00
5.445000e-01 1.282500e-01 0.000000e+00
7.260000e-01 1.282500e-01 0.000000e+00
0.000000e+00 2.565000e-01 0.000000e+00
1.815000e-01 2.565000e-01 0.000000e+00
3.630000e-01 2.565000e-01 0.000000e+00
5.445000e-01 2.565000e-01 0.000000e+00
7.260000e-01 2.565000e-01 0.000000e+00
0.000000e+00 3.847500e-01 0.000000e+00
1.815000e-01 3.847500e-01 0.000000e+00
3.630000e-01 3.847500e-01 0.000000e+00
5.445000e-01 3.847500e-01 0.000000e+00
7.260000e-01 3.847500e-01 0.000000e+00
0.000000e+00 5.130000e-01 0.000000e+00
1.815000e-01 5.130000e-01 0.000000e+00
3.630000e-01 5.130000e-01 0.000000e+00
5.445000e-01 5.130000e-01 0.000000e+00
7.260000e-01 5.130000e-01 0.000000e+00
7.260000e-01 0.000000e+00 0.000000e+00
9.075000e-01 0.000000e+00 0.000000e+00
1.089000e+00 0.000000e+00 0.000000e+00
1.270500e+00 0.000000e+00 0.000000e+00
1.452000e+00 0.000000e+00 0.000000e+00
7.260000e-01 1.282500e-01 0.000000e+00
9.075000e-01 1.282500e-01 0.000000e+00
1.089000e+00 1.282500e-01 0.000000e+00
1.270500e+00 1.282500e-01 0.000000e+00
1.452000e+00 1.282500e-01 0.000000e+00
7.260000e-01 2.565000e-01 0.000000e+00
9.075000e-01 2.565000e-01 0.000000e+00
1.089000e+00 2.565000e-01 0.000000e+00
1.270500e+00 2.565000e-01 0.000000e+00
1.452000e+00 2.565000e-01 0.000000e+00
7.260000e-01 3.847500e-01 0.000000e+00
9.075000e-01 3.847500e-01 0.000000e+00
1.089000e+00 3.847500e-01 0.000000e+00
1.270500e+00 3.847500e-01 0.000000e+00
1.452000e+00 3.847500e-01 0.000000e+00
7.260000e-01 5.130000e-01 0.000000e+00
9.075000e-01 5.130000e-01 0.000000e+00
1.089000e+00 5.130000e-01 0.000000e+00
1.270500e+00 5.130000e-01 0.000000e+00
1.452000e+00 5.130000e-01 0.000000e+00
1.452000e+00 0.000000e+00 0.000000e+00
1.633500e+00 0.000000e+00 0.000000e+00
1.815000e+00 0.000000e+00 0.000000e+00
1.996500e+00 0.000000e+00 0.000000e+00
2.178000e+00 0.000000e+00 0.000000e+00
1.452000e+00 1.282500e-01 0.000000e+00
1.633500e+00 1.282500e-01 0.000000e+00
1.815000e+00 1.282500e-01 0.000000e+00
1.996500e+00 1.282500e-01 0.000000e+00
2.178000e+00 1.282500e-01 0.000000e+00
1.452000e+00 2.565000e-01 0.000000e+00
1.633500e+00 2.565000e-01 0.000000e+00
1.815000e+00 2.565000e-01 0.000000e+00
1.996500e+00 2.565000e-01 0.000000e+00
2.178000e+00 2.565000e-01 0.000000e+00
1.452000e+00 3.847500e-01 0.000000e+00
1.633500e+00 3.847500e-01 0.000000e+00
1.815000e+00 3.847500e-01 0.000000e+00
1.996500e+00 3.847500e-01 0.000000e+00
2.178000e+00 3.847500e-01 0.000000e+00
1.452000e+00 5.130000e-01 0.000000e+00
1.633500e+00 5.130000e-01 0.000000e+00
1.815000e+00 5.130000e-01 0.000000e+00
1.996500e+00 5.130000e-01 0.000000e+00
2.178000e+00 5.130000e-01 0.000000e+00
2.178000e+00 0.000000e+00 0.000000e+00
2.359500e+00 0.000000e+00 0.000000e+00
2.541000e+00 0.000000e+00 0.000000e+00
2.722500e+00 0.000000e+00 0.000000e+00
2.904000e+00 0.000000e+00 0.000000e+00
2.178000e+00 1.282500e-01 0.000000e+00
2.359500e+00 1.282500e-01 0.000000e+00
2.541000e+00 1.282500e-01 0.000000e+00
2.722500e+00 1.282500e-01 0.000000e+00
2.904000e+00 1.282500e-01 0.000000e+00
2.178000e+00 2.565000e-01 0.000000e+00
2.359500e+00 2.565000e-01 0.000000e+00
2.541000e+00 2.565000e-01 0.000000e+00
2.722500e+00 2.565000e-01 0.000000e+00
2.904000e+00 2.565000e-01 0.000000e+00
2.178000e+00 3.847500e-01 0.000000e+00
2.359500e+00 3.847500e-01 0.000000e+00
2.541000e+00 3.847500e-01 0.000000e+00
2.722500e+00 3.847500e-01 0.000000e+00
2.904000e+00 3.847500e-01 0.000000e+00
2.178000e+00 5.130000e-01 0.000000e+00
2.359500e+00 5.130000e-01 0.000000e+00
2.541000e+00 5.130000e-01 0.000000e+00
2.722500e+00 5.130000e-01 0.000000e+00
2.904000e+00 5.130000e-01 0.000000e+00
2.904000e+00 0.000000e+00 0.000000e+00
3.085500e+00 0.000000e+00 0.000000e+00
3.267000e+00 0.000000e+00 0.000000e+00
3.448500e+00 0.000000e+00 0.000000e+00
3.630000e+00 0.000000e+00 0.000000e+00
2.904000e+00 1.282500e-01 0.000000e+00
3.085500e+00 1.282500e-01 0.000000e+00
3.267000e+00 1.282500e-01 0.000000e+00
3.448500e+00 1.282500e-01 0.000000e+00
3.630000e+00 1.282500e-01 0.000000e+00
2.904000e+00 2.565000e-01 0.000000e+00
3.085500e+00 2.565000e-01 0.000000e+00
3.267000e+00 2.565000e-01 0.000000e+00
3.448500e+00 2.565000e-01 0.000000e+00
3.630000e+00 2.565000e-01 0.000000e+00
2.904000e+00 3.847500e-01 0.000000e+00
3.085500e+00 3.847500e-01 0.000000e+00
3.267000e+00 3.847500e-01 0.000000e+00
3.448500e+00 3.847500e-01 0.000000e+00
3.630000e+00 3.847500e-01 0.000000e+00
2.904000e+00 5.130000e-01 0.000000e+00
[...]
<PointData>
<DataArray type="Float32" Name="V1" format="ascii">
0.000000e+00
0.000000e+00
0.000000e+00
0.000000e+00
0.000000e+00
1.264110e-02
1.128080e-02
1.020080e-02
9.401010e-03
8.881550e-03
2.028400e-02
1.854890e-02
1.709110e-02
1.591060e-02
1.500750e-02
2.292870e-02
2.180430e-02
2.067100e-02
1.952880e-02
1.837780e-02
2.057510e-02
2.104690e-02
2.094050e-02
2.025570e-02
1.899250e-02
0.000000e+00
0.000000e+00
0.000000e+00
0.000000e+00
0.000000e+00
8.881550e-03
8.069850e-03
7.065230e-03
5.867680e-03
4.477200e-03
1.500750e-02
1.377940e-02
1.216670e-02
1.016940e-02
7.787500e-03
1.837780e-02
1.712860e-02
1.530430e-02
1.290510e-02
9.930900e-03
1.899250e-02
1.811740e-02
1.647820e-02
1.407480e-02
1.090740e-02
0.000000e+00
0.000000e+00
0.000000e+00
0.000000e+00
0.000000e+00
4.477200e-03
2.030960e-03
8.041060e-04
7.966320e-04
2.008540e-03
7.787500e-03
3.658770e-03
1.521910e-03
1.376930e-03
3.223820e-03
9.930900e-03
4.883420e-03
2.153420e-03
1.740890e-03
3.645840e-03
1.090740e-02
5.704910e-03
2.698620e-03
1.888520e-03
3.274600e-03
0.000000e+00
0.000000e+00
0.000000e+00
0.000000e+00
0.000000e+00
2.008540e-03
-2.979960e-03
-8.158130e-03
-1.352600e-02
-1.908350e-02
3.223820e-03
-6.338010e-03
-1.591240e-02
-2.549930e-02
-3.509880e-02
3.645840e-03
-1.007410e-02
-2.326280e-02
-3.592000e-02
-4.804590e-02
3.274600e-03
-1.418840e-02
-3.020930e-02
-4.478810e-02
-5.792490e-02
0.000000e+00
0.000000e+00
0.000000e+00
0.000000e+00
0.000000e+00
-1.908350e-02
-2.413630e-02
-3.144510e-02
-4.100970e-02
-5.283020e-02
-3.509880e-02
-4.368910e-02
-5.491200e-02
-6.876770e-02
-8.525590e-02
-4.804590e-02
-5.865830e-02
-7.040090e-02
-8.327390e-02
-9.727710e-02
-5.792490e-02
-6.904390e-02
-7.791170e-02
-8.452830e-02
-8.889380e-02
0.000000e+00
0.000000e+00
0.000000e+00
0.000000e+00
0.000000e+00
-5.283020e-02
-4.931380e-02
-4.366270e-02
-3.587690e-02
-2.595650e-02
-8.525590e-02
-7.848300e-02
-6.867140e-02
-5.582100e-02
-3.993190e-02
-9.727710e-02
-8.750760e-02
-7.502600e-02
-5.983220e-02
-4.192630e-02
-8.889380e-02
-7.638770e-02
-6.272660e-02
-4.791060e-02
-3.193970e-02
0.000000e+00
0.000000e+00
0.000000e+00
0.000000e+00
0.000000e+00
-2.595650e-02
-2.034420e-02
-1.527600e-02
-1.075210e-02
-6.772260e-03
-3.993190e-02
-3.119650e-02
-2.340510e-02
-1.655770e-02
-1.065430e-02
-4.192630e-02
-3.255700e-02
-2.438720e-02
-1.741690e-02
-1.164610e-02
-3.193970e-02
-2.442560e-02
-1.822230e-02
-1.332960e-02
-9.747610e-03
0.000000e+00
0.000000e+00
0.000000e+00
0.000000e+00
0.000000e+00
-6.772260e-03
-1.332640e-03
2.583070e-03
4.974850e-03
5.842700e-03
-1.065430e-02
-1.881660e-03
4.480250e-03
8.431450e-03
9.971930e-03
-1.164610e-02
-1.647090e-03
5.691540e-03
1.036980e-02
1.238770e-02
-9.747610e-03
-6.289000e-04
6.216940e-03
1.078990e-02
1.309000e-02
0.000000e+00
0.000000e+00
0.000000e+00
0.000000e+00
0.000000e+00
5.842700e-03
7.073220e-03
8.179630e-03
9.161920e-03
1.002010e-02
9.971930e-03
1.188560e-02
1.362240e-02
1.518210e-02
1.656490e-02
1.238770e-02
1.443720e-02
1.632820e-02
1.806060e-02
1.963450e-02
1.309000e-02
1.472800e-02
1.629710e-02
1.779740e-02
1.922880e-02
0.000000e+00
0.000000e+00
0.000000e+00
0.000000e+00
0.000000e+00
1.002010e-02
1.070270e-02
1.145040e-02
1.226320e-02
1.314100e-02
1.656490e-02
1.781210e-02
1.907780e-02
2.036220e-02
2.166520e-02
1.963450e-02
2.132820e-02
2.288240e-02
2.429710e-02
2.557240e-02
1.922880e-02
2.125100e-02
2.286400e-02
2.406800e-02
2.486270e-02
2.057510e-02
2.104690e-02
2.094050e-02
2.025570e-02
1.899250e-02
2.078850e-02
2.070680e-02
2.032170e-02
1.963340e-02
1.864180e-02
2.103660e-02
2.059440e-02
2.004820e-02
1.939770e-02
1.864320e-02
2.131930e-02
2.071000e-02
2.011980e-02
1.954870e-02
1.899660e-02
2.163650e-02
2.105340e-02
2.053670e-02
2.008620e-02
1.970210e-02
1.899250e-02
1.811740e-02
1.647820e-02
1.407480e-02
1.090740e-02
1.864180e-02
1.769440e-02
1.626800e-02
1.436260e-02
1.197810e-02
1.864320e-02
1.759660e-02
1.636390e-02
1.494500e-02
1.334000e-02
1.899660e-02
1.782400e-02
1.676580e-02
1.582220e-02
1.499300e-02
1.970210e-02
1.837660e-02
1.747390e-02
1.699410e-02
1.693720e-02
1.090740e-02
5.704910e-03
2.698620e-03
1.888520e-03
3.274600e-03
1.197810e-02
6.689700e-03
4.121580e-03
4.273770e-03
7.146280e-03
1.334000e-02
7.919950e-03
5.772810e-03
6.898630e-03
1.129740e-02
1.499300e-02
9.395650e-03
7.652320e-03
9.763070e-03
1.572790e-02
1.693720e-02
1.111680e-02
9.760100e-03
1.286710e-02
2.043780e-02
3.274600e-03
-1.418840e-02
-3.020930e-02
-4.478810e-02
-5.792490e-02
7.146280e-03
-8.602370e-03
-2.276910e-02
-3.535400e-02
-4.635700e-02
1.129740e-02
-2.295010e-03
-1.412230e-02
-2.418440e-02
-3.248150e-02
1.572790e-02
4.733700e-03
-4.268740e-03
-1.127940e-02
-1.629830e-02
2.043780e-02
1.248380e-02
6.791530e-03
3.361120e-03
2.192550e-03
-5.792490e-02
-6.904390e-02
-7.791170e-02
-8.452830e-02
-8.889380e-02
-4.635700e-02
-5.582930e-02
-6.535090e-02
-7.492200e-02
-8.454250e-02
-3.248150e-02
-3.930120e-02
-4.755490e-02
-5.724240e-02
-6.836390e-02
-1.629830e-02
-1.945980e-02
-2.452360e-02
-3.148970e-02
-4.035820e-02
2.192550e-03
3.695160e-03
3.743060e-03
2.336240e-03
-5.252840e-04
-8.889380e-02
-7.638770e-02
-6.272660e-02
-4.791060e-02
-3.193970e-02
-8.454250e-02
-7.253360e-02
-5.889420e-02
-4.362410e-02
-2.672340e-02
-6.836390e-02
-5.826460e-02
-4.655500e-02
-3.323500e-02
-1.830480e-02
-4.035820e-02
-3.358060e-02
-2.570910e-02
-1.674350e-02
-6.683880e-03
-5.252840e-04
1.518260e-03
3.643550e-03
5.850590e-03
8.139390e-03
-3.193970e-02
-2.442560e-02
-1.822230e-02
-1.332960e-02
-9.747610e-03
-2.672340e-02
-1.938970e-02
-1.402810e-02
-1.063850e-02
-9.221080e-03
-1.830480e-02
-1.186760e-02
-7.865440e-03
-6.298380e-03
-7.166400e-03
-6.683880e-03
-1.859240e-03
2.656980e-04
-3.090780e-04
-3.583560e-03
8.139390e-03
1.063530e-02
1.036530e-02
7.329350e-03
1.527430e-03
-9.747610e-03
-6.289000e-04
6.216940e-03
1.078990e-02
1.309000e-02
-9.221080e-03
9.780160e-04
8.333420e-03
1.284510e-02
1.451320e-02
-7.166400e-03
3.212770e-03
1.052950e-02
1.478360e-02
1.597530e-02
-3.583560e-03
6.075380e-03
1.280500e-02
1.660540e-02
1.747650e-02
1.527430e-03
9.565820e-03
1.516020e-02
1.831040e-02
1.901670e-02
1.309000e-02
1.472800e-02
1.629710e-02
1.779740e-02
1.922880e-02
1.451320e-02
1.540210e-02
1.639620e-02
1.749540e-02
1.869990e-02
1.597530e-02
1.625120e-02
1.676140e-02
1.750620e-02
1.848530e-02
1.747650e-02
1.727520e-02
1.739290e-02
1.782960e-02
1.858520e-02
1.901670e-02
1.847420e-02
1.829050e-02
1.846570e-02
1.899960e-02
1.922880e-02
2.125100e-02
2.286400e-02
2.406800e-02
2.486270e-02
1.869990e-02
2.088410e-02
2.253210e-02
2.364390e-02
2.421940e-02
1.848530e-02
2.080190e-02
2.246380e-02
2.347120e-02
2.382380e-02
1.858520e-02
2.100450e-02
2.265940e-02
2.354990e-02
2.367600e-02
1.899960e-02
2.149190e-02
2.311870e-02
2.388000e-02
2.377580e-02
2.163650e-02
2.105340e-02
2.053670e-02
2.008620e-02
1.970210e-02
2.197900e-02
2.141280e-02
2.097500e-02
2.066570e-02
2.048480e-02
2.233590e-02
2.180410e-02
2.144270e-02
2.125170e-02
2.123110e-02
2.270730e-02
2.222730e-02
2.193950e-02
2.184410e-02
2.194090e-02
2.309330e-02
2.268240e-02
2.246560e-02
2.244300e-02
2.261440e-02
1.970210e-02
1.837660e-02
1.747390e-02
1.699410e-02
1.693720e-02
2.048480e-02
1.904420e-02
1.827860e-02
1.818810e-02
1.877270e-02
2.123110e-02
1.975340e-02
1.911820e-02
1.932560e-02
2.037540e-02
2.194090e-02
2.050420e-02
1.999270e-02
2.040650e-02
2.174550e-02
2.261440e-02
2.129660e-02
2.090200e-02
2.143080e-02
2.288300e-02
1.693720e-02
1.111680e-02
9.760100e-03
1.286710e-02
2.043780e-02
1.877270e-02
1.336840e-02
1.230490e-02
1.558200e-02
2.319980e-02
2.037540e-02
1.572130e-02
1.499070e-02
1.818350e-02
2.529990e-02
2.174550e-02
1.817550e-02
1.781750e-02
2.067170e-02
2.673790e-02
2.288300e-02
2.073090e-02
2.078540e-02
2.304640e-02
2.751410e-02
2.043780e-02
1.248380e-02
6.791530e-03
3.361120e-03
2.192550e-03
2.319980e-02
1.814500e-02
1.528380e-02
1.461630e-02
1.614250e-02
2.529990e-02
2.286210e-02
2.229940e-02
2.361190e-02
2.679950e-02
2.673790e-02
2.663500e-02
2.783830e-02
3.034770e-02
3.416350e-02
2.751410e-02
2.946370e-02
3.190040e-02
3.482390e-02
3.823450e-02
2.192550e-03
3.695160e-03
3.743060e-03
2.336240e-03
-5.252840e-04
1.614250e-02
2.370490e-02
3.017200e-02
3.554380e-02
3.982050e-02
2.679950e-02
3.835920e-02
4.894840e-02
5.856720e-02
6.721550e-02
3.416350e-02
4.765810e-02
6.007230e-02
7.140630e-02
8.165980e-02
3.823450e-02
5.160160e-02
6.354380e-02
7.406110e-02
8.315340e-02
-5.252840e-04
1.518260e-03
3.643550e-03
5.850590e-03
8.139390e-03
3.982050e-02
3.196120e-02
2.586870e-02
2.154300e-02
1.898410e-02
6.721550e-02
5.405730e-02
4.328720e-02
3.490510e-02
2.891120e-02
8.165980e-02
6.780660e-02
5.589900e-02
4.593700e-02
3.792050e-02
8.315340e-02
7.320920e-02
6.370430e-02
5.463860e-02
4.601220e-02
8.139390e-03
1.063530e-02
1.036530e-02
7.329350e-03
1.527430e-03
1.898410e-02
1.943790e-02
1.769370e-02
1.375160e-02
7.611560e-03
2.891120e-02
2.717960e-02
2.394500e-02
1.920730e-02
1.296670e-02
3.792050e-02
3.386050e-02
2.911910e-02
2.369650e-02
1.759270e-02
4.601220e-02
3.948050e-02
3.321620e-02
2.721920e-02
2.148970e-02
1.527430e-03
9.565820e-03
1.516020e-02
1.831040e-02
1.901670e-02
7.611560e-03
1.322470e-02
1.717880e-02
1.947380e-02
2.010960e-02
1.296670e-02
1.657710e-02
1.915100e-02
2.068830e-02
2.118910e-02
1.759270e-02
1.962300e-02
2.107680e-02
2.195420e-02
2.225510e-02
2.148970e-02
2.236230e-02
2.295610e-02
2.327130e-02
2.330760e-02
1.901670e-02
1.847420e-02
1.829050e-02
1.846570e-02
1.899960e-02
2.010960e-02
1.957250e-02
1.930710e-02
1.931320e-02
1.959100e-02
2.118910e-02
2.065120e-02
2.031150e-02
2.016990e-02
2.022640e-02
2.225510e-02
2.171020e-02
2.130380e-02
2.103570e-02
2.090590e-02
2.330760e-02
2.274960e-02
2.228390e-02
2.191060e-02
2.162950e-02
1.899960e-02
2.149190e-02
2.311870e-02
2.388000e-02
2.377580e-02
1.959100e-02
2.179720e-02
2.324140e-02
2.392340e-02
2.384330e-02
2.022640e-02
2.214350e-02
2.340010e-02
2.399610e-02
2.393160e-02
2.090590e-02
2.253080e-02
2.359480e-02
2.409800e-02
2.404050e-02
2.162950e-02
2.295890e-02
2.382550e-02
2.422920e-02
2.417020e-02
2.309330e-02
2.268240e-02
2.246560e-02
2.244300e-02
2.261440e-02
2.348320e-02
2.314900e-02
2.299950e-02
2.303490e-02
2.325510e-02
2.386930e-02
2.360540e-02
2.351510e-02
2.359850e-02
2.385550e-02
2.425160e-02
2.405170e-02
2.401240e-02
2.413380e-02
2.441570e-02
2.463000e-02
2.448790e-02
2.449150e-02
2.464070e-02
2.493560e-02
2.261440e-02
2.129660e-02
2.090200e-02
2.143080e-02
2.288300e-02
2.325510e-02
2.219180e-02
2.192560e-02
2.245660e-02
2.378470e-02
2.385550e-02
2.305310e-02
2.291390e-02
2.343810e-02
2.462550e-02
2.441570e-02
2.388050e-02
2.386700e-02
2.437530e-02
2.540540e-02
2.493560e-02
2.467400e-02
2.478490e-02
2.526830e-02
2.612430e-02
2.288300e-02
2.073090e-02
2.078540e-02
2.304640e-02
2.751410e-02
2.378470e-02
2.267080e-02
2.309070e-02
2.504420e-02
2.853150e-02
2.462550e-02
2.433710e-02
2.504510e-02
2.674960e-02
2.945050e-02
2.540540e-02
2.572960e-02
2.664860e-02
2.816250e-02
3.027120e-02
2.612430e-02
2.684850e-02
2.790140e-02
2.928310e-02
3.099360e-02
2.751410e-02
2.946370e-02
3.190040e-02
3.482390e-02
3.823450e-02
2.853150e-02
3.143820e-02
3.452960e-02
3.780560e-02
4.126620e-02
2.945050e-02
3.293070e-02
3.636200e-02
3.974450e-02
4.307810e-02
3.027120e-02
3.394120e-02
3.739760e-02
4.064060e-02
4.367010e-02
3.099360e-02
3.446970e-02
3.763650e-02
4.049400e-02
4.304230e-02
3.823450e-02
5.160160e-02
6.354380e-02
7.406110e-02
8.315340e-02
4.126620e-02
5.281300e-02
6.315700e-02
7.229800e-02
8.023620e-02
4.307810e-02
5.267500e-02
6.125080e-02
6.880560e-02
7.533930e-02
4.367010e-02
5.118740e-02
5.782530e-02
6.358360e-02
6.846250e-02
4.304230e-02
4.835050e-02
5.288050e-02
5.663230e-02
5.960590e-02
8.315340e-02
7.320920e-02
6.370430e-02
5.463860e-02
4.601220e-02
8.023620e-02
7.109520e-02
6.238580e-02
5.410820e-02
4.626220e-02
7.533930e-02
6.763030e-02
6.027910e-02
5.328570e-02
4.665010e-02
6.846250e-02
6.281450e-02
5.738410e-02
5.217120e-02
4.717590e-02
5.960590e-02
5.664790e-02
5.370080e-02
5.076470e-02
4.783950e-02
4.601220e-02
3.948050e-02
3.321620e-02
2.721920e-02
2.148970e-02
4.626220e-02
4.011610e-02
3.437160e-02
2.902870e-02
2.408740e-02
4.665010e-02
4.084080e-02
3.551540e-02
3.067380e-02
2.631610e-02
4.717590e-02
4.165460e-02
3.664750e-02
3.215470e-02
2.817600e-02
4.783950e-02
4.255740e-02
3.776800e-02
3.347120e-02
2.966700e-02
2.148970e-02
2.236230e-02
2.295610e-02
2.327130e-02
2.330760e-02
2.408740e-02
2.446010e-02
2.463040e-02
2.459840e-02
2.436410e-02
2.631610e-02
2.624870e-02
2.605580e-02
2.573740e-02
2.529350e-02
2.817600e-02
2.772820e-02
2.723230e-02
2.668810e-02
2.609580e-02
2.966700e-02
2.889870e-02
2.815990e-02
2.745060e-02
2.677090e-02
2.330760e-02
2.274960e-02
2.228390e-02
2.191060e-02
2.162950e-02
2.436410e-02
2.370680e-02
2.313670e-02
2.265390e-02
2.225830e-02
2.529350e-02
2.456070e-02
2.391310e-02
2.335070e-02
2.287350e-02
2.609580e-02
2.531130e-02
2.461310e-02
2.400100e-02
2.347510e-02
2.677090e-02
2.595870e-02
2.523670e-02
2.460490e-02
2.406320e-02
2.162950e-02
2.295890e-02
2.382550e-02
2.422920e-02
2.417020e-02
2.225830e-02
2.340110e-02
2.412350e-02
2.442540e-02
2.430700e-02
2.287350e-02
2.383310e-02
2.441390e-02
2.461610e-02
2.443960e-02
2.347510e-02
2.425480e-02
2.469680e-02
2.480120e-02
2.456800e-02
2.406320e-02
2.466630e-02
2.497210e-02
2.498080e-02
2.469230e-02
2.463000e-02
2.448790e-02
2.449150e-02
2.464070e-02
2.493560e-02
2.499690e-02
2.490180e-02
2.494040e-02
2.511260e-02
2.541840e-02
2.534870e-02
2.529820e-02
2.536900e-02
2.556100e-02
2.587430e-02
2.568540e-02
2.567710e-02
2.577730e-02
2.598610e-02
2.630340e-02
2.600690e-02
2.603840e-02
2.616540e-02
2.638780e-02
2.670570e-02
2.493560e-02
2.467400e-02
2.478490e-02
2.526830e-02
2.612430e-02
2.541840e-02
2.534020e-02
2.554510e-02
2.603310e-02
2.680400e-02
2.587430e-02
2.594540e-02
2.622720e-02
2.671980e-02
2.742320e-02
2.630340e-02
2.648940e-02
2.683110e-02
2.732850e-02
2.798170e-02
2.670570e-02
2.697220e-02
2.735670e-02
2.785920e-02
2.847970e-02
2.612430e-02
2.684850e-02
2.790140e-02
2.928310e-02
3.099360e-02
2.680400e-02
2.774760e-02
2.887710e-02
3.019260e-02
3.169410e-02
2.742320e-02
2.850220e-02
2.966690e-02
3.091710e-02
3.225290e-02
2.798170e-02
2.911250e-02
3.027080e-02
3.145650e-02
3.266980e-02
2.847970e-02
2.957830e-02
3.068870e-02
3.181090e-02
3.294500e-02
3.099360e-02
3.446970e-02
3.763650e-02
4.049400e-02
4.304230e-02
3.169410e-02
3.485520e-02
3.771210e-02
4.026490e-02
4.251350e-02
3.225290e-02
3.507870e-02
3.762760e-02
3.989950e-02
4.189450e-02
3.266980e-02
3.514020e-02
3.738300e-02
3.939800e-02
4.118540e-02
3.294500e-02
3.503980e-02
3.697820e-02
3.876030e-02
4.038610e-02
4.304230e-02
4.835050e-02
5.288050e-02
5.663230e-02
5.960590e-02
4.251350e-02
4.667770e-02
5.028010e-02
5.332070e-02
5.579950e-02
4.189450e-02
4.515300e-02
4.799790e-02
5.042920e-02
5.244700e-02
4.118540e-02
4.377630e-02
4.603380e-02
4.795780e-02
4.954830e-02
4.038610e-02
4.254760e-02
4.438770e-02
4.590630e-02
4.710350e-02
5.960590e-02
5.664790e-02
5.370080e-02
5.076470e-02
4.783950e-02
5.579950e-02
5.360700e-02
5.126350e-02
4.876910e-02
4.612370e-02
5.244700e-02
5.082340e-02
4.896900e-02
4.688400e-02
4.456820e-02
4.954830e-02
4.829700e-02
4.681730e-02
4.510930e-02
4.317290e-02
4.710350e-02
4.602780e-02
4.480830e-02
4.344500e-02
4.193800e-02
4.783950e-02
4.255740e-02
3.776800e-02
3.347120e-02
2.966700e-02
4.612370e-02
4.160620e-02
3.755450e-02
3.396860e-02
3.084850e-02
4.456820e-02
4.079670e-02
3.742380e-02
3.444930e-02
3.187330e-02
4.317290e-02
4.012900e-02
3.737570e-02
3.491320e-02
3.274140e-02
4.193800e-02
3.960300e-02
3.741040e-02
3.536030e-02
3.345270e-02
2.966700e-02
2.889870e-02
2.815990e-02
2.745060e-02
2.677090e-02
3.084850e-02
2.990530e-02
2.899980e-02
2.813180e-02
2.730140e-02
3.187330e-02
3.074570e-02
2.968240e-02
2.868350e-02
2.774900e-02
3.274140e-02
3.141970e-02
3.020780e-02
2.910590e-02
2.811380e-02
3.345270e-02
3.192730e-02
3.057600e-02
2.939890e-02
2.839580e-02
2.677090e-02
2.595870e-02
2.523670e-02
2.460490e-02
2.406320e-02
2.730140e-02
2.654640e-02
2.586960e-02
2.527110e-02
2.475090e-02
2.774900e-02
2.705570e-02
2.642720e-02
2.586350e-02
2.536450e-02
2.811380e-02
2.748690e-02
2.690960e-02
2.638190e-02
2.590380e-02
2.839580e-02
2.783980e-02
2.731660e-02
2.682630e-02
2.636890e-02
2.406320e-02
2.466630e-02
2.497210e-02
2.498080e-02
2.469230e-02
2.475090e-02
2.505930e-02
2.518310e-02
2.512230e-02
2.487700e-02
2.536450e-02
2.541140e-02
2.537670e-02
2.526040e-02
2.506240e-02
2.590380e-02
2.572260e-02
2.555300e-02
2.539490e-02
2.524830e-02
2.636890e-02
2.599300e-02
2.571200e-02
2.552600e-02
2.543490e-02
2.600690e-02
2.603840e-02
2.616540e-02
2.638780e-02
2.670570e-02
2.630990e-02
2.637730e-02
2.652770e-02
2.676080e-02
2.707690e-02
2.659390e-02
2.669350e-02
2.686400e-02
2.710550e-02
2.741800e-02
2.685910e-02
2.698690e-02
2.717440e-02
2.742180e-02
2.772890e-02
2.710540e-02
2.725750e-02
2.745890e-02
2.770970e-02
2.800980e-02
2.670570e-02
2.697220e-02
2.735670e-02
2.785920e-02
2.847970e-02
2.707690e-02
2.738860e-02
2.779840e-02
2.830650e-02
2.891280e-02
2.741800e-02
2.776210e-02
2.818720e-02
2.869330e-02
2.928020e-02
2.772890e-02
2.809300e-02
2.852320e-02
2.901950e-02
2.958210e-02
2.800980e-02
2.838100e-02
2.880620e-02
2.928530e-02
2.981830e-02
2.847970e-02
2.957830e-02
3.068870e-02
3.181090e-02
3.294500e-02
2.891280e-02
2.995460e-02
3.100070e-02
3.205120e-02
3.310610e-02
2.928020e-02
3.026300e-02
3.124310e-02
3.222040e-02
3.319490e-02
2.958210e-02
3.050380e-02
3.141590e-02
3.231840e-02
3.321130e-02
2.981830e-02
3.067670e-02
3.151900e-02
3.234530e-02
3.315540e-02
3.294500e-02
3.503980e-02
3.697820e-02
3.876030e-02
4.038610e-02
3.310610e-02
3.495410e-02
3.666210e-02
3.823030e-02
3.965850e-02
3.319490e-02
3.481900e-02
3.631720e-02
3.768960e-02
3.893620e-02
3.321130e-02
3.463440e-02
3.594340e-02
3.713840e-02
3.821920e-02
3.315540e-02
3.440040e-02
3.554080e-02
3.657650e-02
3.750740e-02
4.038610e-02
4.254760e-02
4.438770e-02
4.590630e-02
4.710350e-02
3.965850e-02
4.146410e-02
4.297600e-02
4.419420e-02
4.511890e-02
3.893620e-02
4.041900e-02
4.164360e-02
4.261010e-02
4.331840e-02
3.821920e-02
3.941250e-02
4.039070e-02
4.115390e-02
4.170210e-02
3.750740e-02
3.844450e-02
3.921720e-02
3.982570e-02
4.026980e-02
4.710350e-02
4.602780e-02
4.480830e-02
4.344500e-02
4.193800e-02
4.511890e-02
4.416650e-02
4.309100e-02
4.189230e-02
4.057040e-02
4.331840e-02
4.252300e-02
4.161600e-02
4.059740e-02
3.946740e-02
4.170210e-02
4.109710e-02
4.038320e-02
3.956040e-02
3.862880e-02
4.026980e-02
3.988880e-02
3.939270e-02
3.878130e-02
3.805480e-02
4.193800e-02
3.960300e-02
3.741040e-02
3.536030e-02
3.345270e-02
4.057040e-02
3.857720e-02
3.671790e-02
3.499240e-02
3.340080e-02
3.946740e-02
3.776550e-02
3.617980e-02
3.471030e-02
3.335690e-02
3.862880e-02
3.716780e-02
3.579620e-02
3.451390e-02
3.332090e-02
3.805480e-02
3.678410e-02
3.556690e-02
3.440320e-02
3.329300e-02
3.345270e-02
3.192730e-02
3.057600e-02
2.939890e-02
2.839580e-02
3.340080e-02
3.205280e-02
3.083220e-02
2.973910e-02
2.877350e-02
3.335690e-02
3.214740e-02
3.103370e-02
3.001590e-02
2.909390e-02
3.332090e-02
3.221120e-02
3.118070e-02
3.022920e-02
2.935690e-02
3.329300e-02
3.224430e-02
3.127290e-02
3.037910e-02
2.956270e-02
2.839580e-02
2.783980e-02
2.731660e-02
2.682630e-02
2.636890e-02
2.877350e-02
2.819540e-02
2.765430e-02
2.715020e-02
2.668320e-02
2.909390e-02
2.849760e-02
2.794120e-02
2.742470e-02
2.694810e-02
2.935690e-02
2.874640e-02
2.817730e-02
2.764960e-02
2.716330e-02
2.956270e-02
2.894190e-02
2.836270e-02
2.782510e-02
2.732910e-02
2.636890e-02
2.599300e-02
2.571200e-02
2.552600e-02
2.543490e-02
2.668320e-02
2.628990e-02
2.597790e-02
2.574740e-02
2.559830e-02
2.694810e-02
2.655000e-02
2.621760e-02
2.595090e-02
2.575000e-02
2.716330e-02
2.677340e-02
2.643110e-02
2.613660e-02
2.588980e-02
2.732910e-02
2.696000e-02
2.661840e-02
2.630440e-02
2.601790e-02
2.710540e-02
2.725750e-02
2.745890e-02
2.770970e-02
2.800980e-02
2.733260e-02
2.749910e-02
2.770810e-02
2.795960e-02
2.825360e-02
2.754220e-02
2.772050e-02
2.793460e-02
2.818470e-02
2.847060e-02
2.773410e-02
2.792150e-02
2.813840e-02
2.838480e-02
2.866070e-02