<?xml version="1.0"?>
<VTKFile type="UnstructuredGrid" version="0.1" byte_order="LittleEndian" compressor="vtkZLibDataCompressor">
<UnstructuredGrid>
<Piece NumberOfPoints="2500" NumberOfCells="1600">
<Points>
<DataArray type="Float32" NumberOfComponents="3" format="ascii">
-3.630000e+00 0.000000e+00 0.000000e+00
-3.448500e+00 0.000000e+00 0.000000e+00
-3.267000e+00 0.000000e+00 0.000000e+00
-3.085500e+00 0.000000e+00 0.000000e+00
-2.904000e+00 0.000000e+00 0.000000e+00
-3.630000e+00 1.282500e-01 0.000000e+00
-3.448500e+00 1.282500e-01 0.000000e+00
-3.267000e+00 1.282500e-01 0.000000e+00
-3.085500e+00 1.282500e-01 0.000000e+00
-2.904000e+00 1.282500e-01 0.000000e+00
-3.630000e+00 2.565000e-01 0.000000e+00
-3.448500e+00 2.565000e-01 0.000000e+00
-3.267000e+00 2.565000e-01 0.000000e+00
-3.085500e+00 2.565000e-01 0.000000e+00
-2.904000e+00 2.565000e-01 0.000000e+00
-3.630000e+00 3.847500e-01 0.000000e+00
-3.448500e+00 3.847500e-01 0.000000e+00
-3.267000e+00 3.847500e-01 0.000000e+00
-3.085500e+00 3.847500e-01 0.000000e+00
-2.904000e+00 3.847500e-01 0.000000e+00
-3.630000e+00 5.130000e-01 0.000000e+00
-3.448500e+00 5.130000e-01 0.000000e+00
-3.267000e+00 5.130000e-01 0.000000e+00
-3.085500e+00 5.130000e-01 0.000000e+00
-2.904000e+00 5.130000e-01 0.000000e+00
-2.904000e+00 0.000000e+00 0.000000e+00
-2.722500e+00 0.000000e+00 0.000000e+00
-2.541000e+00 0.000000e+00 0.000000e+00
-2.359500e+00 0.000000e+00 0.000000e+00
-2.178000e+00 0.000000e+00 0.000000e+00
-2.904000e+00 1.282500e-01 0.000000e+00
-2.722500e+00 1.282500e-01 0.000000e+00
-2.541000e+00 1.282500e-01 0.000000e+00
-2.359500e+00 1.282500e-01 0.000000e+00
-2.178000e+00 1.282500e-01 0.000000e+00
-2.904000e+00 2.565000e-01 0.000000e+00
-2.722500e+00 2.565000e-01 0.000000e+00
-2.541000e+00 2.565000e-01 0.000000e+00
-2.359500e+00 2.565000e-01 0.000000e+00
-2.178000e+00 2.565000e-01 0.000000e+00
-2.904000e+00 3.847500e-01 0.000000e+00
-2.722500e+00 3.847500e-01 0.000000e+00
-2.541000e+00 3.847500e-01 0.000000e+00
-2.359500e+00 3.847500e-01 0.000000e+00
-2.178000e+00 3.847500e-01 0.000000e+00
-2.904000e+00 5.130000e-01 0.000000e+00
-2.722500e+00 5.130000e-01 0.000000e+00
-2.541000e+00 5.130000e-01 0.000000e+00
-2.359500e+00 5.130000e-01 0.000000e+00
-2.178000e+00 5.130000e-01 0.000000e+00
-2.178000e+00 0.000000e+00 0.000000e+00
-1.996500e+00 0.000000e+00 0.000000e+00
-1.815000e+00 0.000000e+00 0.000000e+00
-1.633500e+00 0.000000e+00 0.000000e+00
-1.452000e+00 0.000000e+00 0.000000e+00
-2.178000e+00 1.282500e-01 0.000000e+00
-1.996500e+00 1.282500e-01 0.000000e+00
-1.815000e+00 1.282500e-01 0.000000e+00
-1.633500e+00 1.282500e-01 0.000000e+00
-1.452000e+00 1.282500e-01 0.000000e+00
-2.178000e+00 2.565000e-01 0.000000e+00
-1.996500e+00 2.565000e-01 0.000000e+00
-1.815000e+00 2.565000e-01 0.000000e+00
-1.633500e+00 2.565000e-01 0.000000e+00
-1.452000e+00 2.565000e-01 0.000000e+00
-2.178000e+00 3.847500e-01 0.000000e+00
-1.996500e+00 3.847500e-01 0.000000e+00
-1.815000e+00 3.847500e-01 0.000000e+00
-1.633500e+00 3.847500e-01 0.000000e+00
-1.452000e+00 3.847500e-01 0.000000e+00
-2.178000e+00 5.130000e-01 0.000000e+00
-1.996500e+00 5.130000e-01 0.000000e+00
-1.815000e+00 5.130000e-01 0.000000e+00
-1.633500e+00 5.130000e-01 0.000000e+00
-1.452000e+00 5.130000e-01 0.000000e+00
-1.452000e+00 0.000000e+00 0.000000e+00
-1.270500e+00 0.000000e+00 0.000000e+00
-1.089000e+00 0.000000e+00 0.000000e+00
-9.075000e-01 0.000000e+00 0.000000e+00
-7.260000e-01 0.000000e+00 0.000000e+00
-1.452000e+00 1.282500e-01 0.000000e+00
-1.270500e+00 1.282500e-01 0.000000e+00
-1.089000e+00 1.282500e-01 0.000000e+00
-9.075000e-01 1.282500e-01 0.000000e+00
-7.260000e-01 1.282500e-01 0.000000e+00
-1.452000e+00 2.565000e-01 0.000000e+00
-1.270500e+00 2.565000e-01 0.000000e+00
-1.089000e+00 2.565000e-01 0.000000e+00
-9.075000e-01 2.565000e-01 0.000000e+00
-7.260000e-01 2.565000e-01 0.000000e+00
-1.452000e+00 3.847500e-01 0.000000e+00
-1.270500e+00 3.847500e-01 0.000000e+00
-1.089000e+00 3.847500e-01 0.000000e+00
-9.075000e-01 3.847500e-01 0.000000e+00
-7.260000e-01 3.847500e-01 0.000000e+00
-1.452000e+00 5.130000e-01 0.000000e+00
-1.270500e+00 5.130000e-01 0.000000e+00
-1.089000e+00 5.130000e-01 0.000000e+00
-9.075000e-01 5.130000e-01 0.000000e+00
-7.260000e-01 5.130000e-01 0.000000e+00
-7.260000e-01 0.000000e+00 0.000000e+00
-5.445000e-01 0.000000e+00 0.000000e+00
-3.630000e-01 0.000000e+00 0.000000e+00
-1.815000e-01 0.000000e+00 0.000000e+00
0.000000e+00 0.000000e+00 0.000000e+00
-7.260000e-01 1.282500e-01 0.000000e+00
-5.445000e-01 1.282500e-01 0.000000e+00
-3.630000e-01 1.282500e-01 0.000000e+00
-1.815000e-01 1.282500e-01 0.000000e+00
0.000000e+00 1.282500e-01 0.000000e+00
-7.260000e-01 2.565000e-01 0.000000e+00
-5.445000e-01 2.565000e-01 0.000000e+00
-3.630000e-01 2.565000e-01 0.000000e+00
-1.815000e-01 2.565000e-01 0.000000e+00
0.000000e+00 2.565000e-01 0.000000e+00
-7.260000e-01 3.847500e-01 0.000000e+00
-5.445000e-01 3.847500e-01 0.000000e+00
-3.630000e-01 3.847500e-01 0.000000e+00
-1.815000e-01 3.847500e-01 0.000000e+00
0.000000e+00 3.847500e-01 0.000000e+00
-7.260000e-01 5.130000e-01 0.000000e+00
-5.445000e-01 5.130000e-01 0.000000e+00
-3.630000e-01 5.130000e-01 0.000000e+00
-1.815000e-01 5.130000e-01 0.000000e+00
0.000000e+00 5.130000e-01 0.000000e+00
0.000000e+00 0.000000e+00 0.000000e+00
1.815000e-01 0.000000e+00 0.000000e+00
3.630000e-01 0.000000e+00 0.000000e+00
5.445000e-01 0.000000e+00 0.000000e+00
7.260000e-01 0.000000e+00 0.000000e+00
0.000000e+00 1.282500e-01 0.000000e+00
1.815000e-01 1.282500e-01 0.000000e+00
3.630000e-01 1.282500e-01 0.000000e+00
5.445000e-01 1.282500e-01 0.000000e+00
7.260000e-01 1.282500e-01 0.000000e+00
0.000000e+00 2.565000e-01 0.000000e+00
1.815000e-01 2.565000e-01 0.000000e+00
3.630000e-01 2.565000e-01 0.000000e+00
5.445000e-01 2.565000e-01 0.000000e+00
7.260000e-01 2.565000e-01 0.000000e+00
0.000000e+00 3.847500e-01 0.000000e+00
1.815000e-01 3.847500e-01 0.000000e+00
3.630000e-01 3.847500e-01 0.000000e+00
5.445000e-01 3.847500e-01 0.000000e+00
7.260000e-01 3.847500e-01 0.000000e+00
0.000000e+00 5.130000e-01 0.000000e+00
1.815000e-01 5.130000e-01 0.000000e+00
3.630000e-01 5.130000e-01 0.000000e+00
5.445000e-01 5.130000e-01 0.000000e+00
7.260000e-01 5.130000e-01 0.000000e+00
7.260000e-01 0.000000e+00 0.000000e+00
9.075000e-01 0.000000e+00 0.000000e+00
1.089000e+00 0.000000e+00 0.000000e+00
1.270500e+00 0.000000e+00 0.000000e+00
1.452000e+00 0.000000e+00 0.000000e+00
7.260000e-01 1.282500e-01 0.000000e+00
9.075000e-01 1.282500e-01 0.000000e+00
1.089000e+00 1.282500e-01 0.000000e+00
1.270500e+00 1.282500e-01 0.000000e+00
1.452000e+00 1.282500e-01 0.000000e+00
7.260000e-01 2.565000e-01 0.000000e+00
9.075000e-01 2.565000e-01 0.000000e+00
1.089000e+00 2.565000e-01 0.000000e+00
1.270500e+00 2.565000e-01 0.000000e+00
1.452000e+00 2.565000e-01 0.000000e+00
7.260000e-01 3.847500e-01 0.000000e+00
9.075000e-01 3.847500e-01 0.000000e+00
1.089000e+00 3.847500e-01 0.000000e+00
1.270500e+00 3.847500e-01 0.000000e+00
1.452000e+00 3.847500e-01 0.000000e+00
7.260000e-01 5.130000e-01 0.000000e+00
9.075000e-01 5.130000e-01 0.000000e+00
1.089000e+00 5.130000e-01 0.000000e+00
1.270500e+00 5.130000e-01 0.000000e+00
1.452000e+00 5.130000e-01 0.000000e+00
1.452000e+00 0.000000e+00 0.000000e+00
1.633500e+00 0.000000e+00 0.000000e+00
1.815000e+00 0.000000e+00 0.000000e+00
1.996500e+00 0.000000e+00 0.000000e+00
2.178000e+00 0.000000e+00 0.000000e+00
1.452000e+00 1.282500e-01 0.000000e+00
1.633500e+00 1.282500e-01 0.000000e+00
1.815000e+00 1.282500e-01 0.000000e+00
1.996500e+00 1.282500e-01 0.000000e+00
2.178000e+00 1.282500e-01 0.000000e+00
1.452000e+00 2.565000e-01 0.000000e+00
1.633500e+00 2.565000e-01 0.000000e+00
1.815000e+00 2.565000e-01 0.000000e+00
1.996500e+00 2.565000e-01 0.000000e+00
2.178000e+00 2.565000e-01 0.000000e+00
1.452000e+00 3.847500e-01 0.000000e+00
1.633500e+00 3.847500e-01 0.000000e+00
1.815000e+00 3.847500e-01 0.000000e+00
1.996500e+00 3.847500e-01 0.000000e+00
2.178000e+00 3.847500e-01 0.000000e+00
1.452000e+00 5.130000e-01 0.000000e+00
1.633500e+00 5.130000e-01 0.000000e+00
1.815000e+00 5.130000e-01 0.000000e+00
1.996500e+00 5.130000e-01 0.000000e+00
2.178000e+00 5.130000e-01 0.000000e+00
2.178000e+00 0.000000e+00 0.000000e+00
2.359500e+00 0.000000e+00 0.000000e+00
2.541000e+00 0.000000e+00 0.000000e+00
2.722500e+00 0.000000e+00 0.000000e+00
2.904000e+00 0.000000e+00 0.000000e+00
2.178000e+00 1.282500e-01 0.000000e+00
2.359500e+00 1.282500e-01 0.000000e+00
2.541000e+00 1.282500e-01 0.000000e+00
2.722500e+00 1.282500e-01 0.000000e+00
2.904000e+00 1.282500e-01 0.000000e+00
2.178000e+00 2.565000e-01 0.000000e+00
2.359500e+00 2.565000e-01 0.000000e+00
2.541000e+00 2.565000e-01 0.000000e+00
2.722500e+00 2.565000e-01 0.000000e+00
2.904000e+00 2.565000e-01 0.000000e+00
2.178000e+00 3.847500e-01 0.000000e+00
2.359500e+00 3.847500e-01 0.000000e+00
2.541000e+00 3.847500e-01 0.000000e+00
2.722500e+00 3.847500e-01 0.000000e+00
2.904000e+00 3.847500e-01 0.000000e+00
2.178000e+00 5.130000e-01 0.000000e+00
2.359500e+00 5.130000e-01 0.000000e+00
2.541000e+00 5.130000e-01 0.000000e+00
2.722500e+00 5.130000e-01 0.000000e+00
2.904000e+00 5.130000e-01 0.000000e+00
2.904000e+00 0.000000e+00 0.000000e+00
3.085500e+00 0.000000e+00 0.000000e+00
3.267000e+00 0.000000e+00 0.000000e+00
3.448500e+00 0.000000e+00 0.000000e+00
3.630000e+00 0.000000e+00 0.000000e+00
2.904000e+00 1.282500e-01 0.000000e+00
3.085500e+00 1.282500e-01 0.000000e+00
3.267000e+00 1.282500e-01 0.000000e+00
3.448500e+00 1.282500e-01 0.000000e+00
3.630000e+00 1.282500e-01 0.000000e+00
2.904000e+00 2.565000e-01 0.000000e+00
3.085500e+00 2.565000e-01 0.000000e+00
3.267000e+00 2.565000e-01 0.000000e+00
3.448500e+00 2.565000e-01 0.000000e+00
3.630000e+00 2.565000e-01 0.000000e+00
2.904000e+00 3.847500e-01 0.000000e+00
3.085500e+00 3.847500e-01 0.000000e+00
3.267000e+00 3.847500e-01 0.000000e+00
3.448500e+00 3.847500e-01 0.000000e+00
3.630000e+00 3.847500e-01 0.000000e+00
2.904000e+00 5.130000e-01 0.000000e+00
[...]
<PointData>
<DataArray type="Float32" Name="V1" format="ascii">
0.000000e+00
0.000000e+00
0.000000e+00
0.000000e+00
0.000000e+00
1.264110e-02
1.103890e-02
9.665930e-03
8.522150e-03
7.607600e-03
2.028400e-02
1.823340e-02
1.641510e-02
1.482910e-02
1.347560e-02
2.292870e-02
2.158340e-02
2.024750e-02
1.892100e-02
1.760380e-02
2.057510e-02
2.108890e-02
2.116310e-02
2.079770e-02
1.999250e-02
0.000000e+00
0.000000e+00
0.000000e+00
0.000000e+00
0.000000e+00
7.607600e-03
6.584430e-03
5.821570e-03
5.319010e-03
5.076750e-03
1.347560e-02
1.195640e-02
1.078440e-02
9.959580e-03
9.481900e-03
1.760380e-02
1.611590e-02
1.488850e-02
1.392170e-02
1.321540e-02
1.999250e-02
1.906290e-02
1.813390e-02
1.720540e-02
1.627740e-02
0.000000e+00
0.000000e+00
0.000000e+00
0.000000e+00
0.000000e+00
5.076750e-03
4.897290e-03
4.759700e-03
4.663970e-03
4.610120e-03
9.481900e-03
9.128950e-03
8.824470e-03
8.568460e-03
8.360910e-03
1.321540e-02
1.269500e-02
1.219430e-02
1.171350e-02
1.125240e-02
1.627740e-02
1.559540e-02
1.486930e-02
1.409900e-02
1.328460e-02
0.000000e+00
0.000000e+00
0.000000e+00
0.000000e+00
0.000000e+00
4.610120e-03
3.655750e-03
3.783620e-03
4.993740e-03
7.286090e-03
8.360910e-03
6.467710e-03
6.457310e-03
8.329720e-03
1.208490e-02
1.125240e-02
8.435870e-03
8.021060e-03
1.000800e-02
1.439660e-02
1.328460e-02
9.560240e-03
8.474870e-03
1.002840e-02
1.422100e-02
0.000000e+00
0.000000e+00
0.000000e+00
0.000000e+00
0.000000e+00
7.286090e-03
5.528100e-03
1.317300e-03
-5.346310e-03
-1.446270e-02
1.208490e-02
7.663570e-03
-1.306490e-04
-1.129770e-02
-2.583760e-02
1.439660e-02
6.406410e-03
-4.343850e-03
-1.785420e-02
-3.412460e-02
1.422100e-02
1.756620e-03
-1.132230e-02
-2.501580e-02
-3.932380e-02
0.000000e+00
0.000000e+00
0.000000e+00
0.000000e+00
0.000000e+00
-1.446270e-02
-1.516360e-02
-1.599120e-02
-1.694560e-02
-1.802670e-02
-2.583760e-02
-2.583740e-02
-2.637600e-02
-2.745330e-02
-2.906950e-02
-3.412460e-02
-3.202150e-02
-3.115440e-02
-3.152330e-02
-3.312820e-02
-3.932380e-02
-3.371580e-02
-3.032630e-02
-2.915540e-02
-3.020290e-02
0.000000e+00
0.000000e+00
0.000000e+00
0.000000e+00
0.000000e+00
-1.802670e-02
-1.712020e-02
-1.502330e-02
-1.173590e-02
-7.258090e-03
-2.906950e-02
-2.731240e-02
-2.376120e-02
-1.841580e-02
-1.127620e-02
-3.312820e-02
-3.057670e-02
-2.621380e-02
-2.003970e-02
-1.205420e-02
-3.020290e-02
-2.691290e-02
-2.238110e-02
-1.660760e-02
-9.592240e-03
0.000000e+00
0.000000e+00
0.000000e+00
0.000000e+00
0.000000e+00
-7.258090e-03
-4.363080e-03
-1.870540e-03
2.195070e-04
1.907080e-03
-1.127620e-02
-6.548240e-03
-2.481970e-03
9.226510e-04
3.665620e-03
-1.205420e-02
-6.555490e-03
-1.834270e-03
2.109430e-03
5.275620e-03
-9.592240e-03
-4.384820e-03
7.254540e-05
3.779850e-03
6.737090e-03
0.000000e+00
0.000000e+00
0.000000e+00
0.000000e+00
0.000000e+00
1.907080e-03
3.769410e-03
5.230790e-03
6.291240e-03
6.950740e-03
3.665620e-03
6.718850e-03
9.134280e-03
1.091190e-02
1.205180e-02
5.275620e-03
8.848320e-03
1.171050e-02
1.386210e-02
1.530310e-02
6.737090e-03
1.015780e-02
1.295940e-02
1.514170e-02
1.670480e-02
0.000000e+00
0.000000e+00
0.000000e+00
0.000000e+00
0.000000e+00
6.950740e-03
7.548420e-03
8.174240e-03
8.828210e-03
9.510330e-03
1.205180e-02
1.313820e-02
1.422880e-02
1.532360e-02
1.642270e-02
1.530310e-02
1.676930e-02
1.816370e-02
1.948630e-02
2.073710e-02
1.670480e-02
1.844170e-02
1.997880e-02
2.131610e-02
2.245350e-02
2.057510e-02
2.108890e-02
2.116310e-02
2.079770e-02
1.999250e-02
2.078850e-02
2.097540e-02
2.100090e-02
2.086500e-02
2.056780e-02
2.103660e-02
2.096230e-02
2.091220e-02
2.088640e-02
2.088490e-02
2.131930e-02
2.104960e-02
2.089720e-02
2.086190e-02
2.094380e-02
2.163650e-02
2.123750e-02
2.095580e-02
2.079150e-02
2.074450e-02
1.999250e-02
1.906290e-02
1.813390e-02
1.720540e-02
1.627740e-02
2.056780e-02
2.010900e-02
1.955320e-02
1.890030e-02
1.815050e-02
2.088490e-02
2.075150e-02
2.047620e-02
2.005930e-02
1.950050e-02
2.094380e-02
2.099030e-02
2.090310e-02
2.068220e-02
2.032740e-02
2.074450e-02
2.082560e-02
2.083380e-02
2.076910e-02
2.063140e-02
1.627740e-02
1.559540e-02
1.486930e-02
1.409900e-02
1.328460e-02
1.815050e-02
1.739160e-02
1.654360e-02
1.560630e-02
1.457990e-02
1.950050e-02
1.866110e-02
1.775000e-02
1.676700e-02
1.571230e-02
2.032740e-02
1.940390e-02
1.848850e-02
1.758100e-02
1.668160e-02
2.063140e-02
1.962000e-02
1.875900e-02
1.804830e-02
1.748800e-02
1.328460e-02
9.560240e-03
8.474870e-03
1.002840e-02
1.422100e-02
1.457990e-02
1.040810e-02
8.833610e-03
9.856400e-03
1.347650e-02
1.571230e-02
1.117610e-02
9.229130e-03
9.871440e-03
1.310300e-02
1.668160e-02
1.186410e-02
9.661430e-03
1.007360e-02
1.310050e-02
1.748800e-02
1.247220e-02
1.013050e-02
1.046280e-02
1.346900e-02
1.422100e-02
1.756620e-03
-1.132230e-02
-2.501580e-02
-3.932380e-02
1.347650e-02
-1.432190e-03
-1.520670e-02
-2.784720e-02
-3.935350e-02
1.310300e-02
-2.744040e-03
-1.636910e-02
-2.777220e-02
-3.695340e-02
1.310050e-02
-2.178910e-03
-1.480940e-02
-2.479090e-02
-3.212350e-02
1.346900e-02
2.631900e-04
-1.052760e-02
-1.890320e-02
-2.486380e-02
-3.932380e-02
-3.371580e-02
-3.032630e-02
-2.915540e-02
-3.020290e-02
-3.935350e-02
-3.236290e-02
-2.776260e-02
-2.555280e-02
-2.573340e-02
-3.695340e-02
-2.929790e-02
-2.390250e-02
-2.076720e-02
-1.989190e-02
-3.212350e-02
-2.452100e-02
-1.874600e-02
-1.479850e-02
-1.267850e-02
-2.486380e-02
-1.803200e-02
-1.229300e-02
-7.646640e-03
-4.093020e-03
-3.020290e-02
-2.691290e-02
-2.238110e-02
-1.660760e-02
-9.592240e-03
-2.573340e-02
-2.442720e-02
-2.108130e-02
-1.569570e-02
-8.270270e-03
-1.989190e-02
-2.007550e-02
-1.781780e-02
-1.311880e-02
-5.978580e-03
-1.267850e-02
-1.385780e-02
-1.259070e-02
-8.877140e-03
-2.717170e-03
-4.093020e-03
-5.774020e-03
-5.399860e-03
-2.970530e-03
1.513970e-03
-9.592240e-03
-4.384820e-03
7.254540e-05
3.779850e-03
6.737090e-03
-8.270270e-03
-2.840340e-03
1.682340e-03
5.297760e-03
8.005920e-03
-5.978580e-03
-5.510210e-04
3.850430e-03
7.225780e-03
9.575020e-03
-2.717170e-03
2.483130e-03
6.576830e-03
9.563920e-03
1.144440e-02
1.513970e-03
6.262120e-03
9.861520e-03
1.231220e-02
1.361410e-02
6.737090e-03
1.015780e-02
1.295940e-02
1.514170e-02
1.670480e-02
8.005920e-03
1.130360e-02
1.398310e-02
1.604440e-02
1.748750e-02
9.575020e-03
1.258530e-02
1.501660e-02
1.686880e-02
1.814200e-02
1.144440e-02
1.400290e-02
1.605970e-02
1.761480e-02
1.866820e-02
1.361410e-02
1.555640e-02
1.711260e-02
1.828250e-02
1.906620e-02
1.670480e-02
1.844170e-02
1.997880e-02
2.131610e-02
2.245350e-02
1.748750e-02
1.929260e-02
2.087010e-02
2.222020e-02
2.334280e-02
1.814200e-02
1.996590e-02
2.153280e-02
2.284280e-02
2.389590e-02
1.866820e-02
2.046170e-02
2.196700e-02
2.318410e-02
2.411300e-02
1.906620e-02
2.078000e-02
2.217260e-02
2.324380e-02
2.399380e-02
2.163650e-02
2.123750e-02
2.095580e-02
2.079150e-02
2.074450e-02
2.197900e-02
2.159230e-02
2.130480e-02
2.111660e-02
2.102770e-02
2.233590e-02
2.198680e-02
2.171450e-02
2.151890e-02
2.140000e-02
2.270730e-02
2.242120e-02
2.218490e-02
2.199830e-02
2.186150e-02
2.309330e-02
2.289550e-02
2.271600e-02
2.255480e-02
2.241200e-02
2.074450e-02
2.082560e-02
2.083380e-02
2.076910e-02
2.063140e-02
2.102770e-02
2.097050e-02
2.092850e-02
2.090170e-02
2.089010e-02
2.140000e-02
2.122490e-02
2.113240e-02
2.112250e-02
2.119540e-02
2.186150e-02
2.158870e-02
2.144540e-02
2.143160e-02
2.154720e-02
2.241200e-02
2.206190e-02
2.186750e-02
2.182880e-02
2.194570e-02
2.063140e-02
1.962000e-02
1.875900e-02
1.804830e-02
1.748800e-02
2.089010e-02
1.967210e-02
1.886510e-02
1.846900e-02
1.848400e-02
2.119540e-02
1.982140e-02
1.907200e-02
1.894690e-02
1.944640e-02
2.154720e-02
2.006810e-02
1.937970e-02
1.948200e-02
2.037500e-02
2.194570e-02
2.041210e-02
1.978830e-02
2.007430e-02
2.127000e-02
1.748800e-02
1.247220e-02
1.013050e-02
1.046280e-02
1.346900e-02
1.848400e-02
1.358120e-02
1.131490e-02
1.168500e-02
1.469150e-02
1.944640e-02
1.492100e-02
1.287400e-02
1.330540e-02
1.621510e-02
2.037500e-02
1.649160e-02
1.480800e-02
1.532400e-02
1.803980e-02
2.127000e-02
1.829300e-02
1.711660e-02
1.774080e-02
2.016550e-02
1.346900e-02
2.631900e-04
-1.052760e-02
-1.890320e-02
-2.486380e-02
1.469150e-02
6.255540e-03
-1.379470e-03
-8.213470e-03
-1.424650e-02
1.621510e-02
1.247240e-02
7.955150e-03
2.663300e-03
-3.403130e-03
1.803980e-02
1.891390e-02
1.747630e-02
1.372710e-02
7.666180e-03
2.016550e-02
2.557990e-02
2.718400e-02
2.497790e-02
1.896150e-02
-2.486380e-02
-1.803200e-02
-1.229300e-02
-7.646640e-03
-4.093020e-03
-1.424650e-02
-1.029560e-02
-6.135090e-03
-1.764870e-03
2.815060e-03
-3.403130e-03
-1.739340e-03
1.280000e-03
5.654890e-03
1.138530e-02
7.666180e-03
7.636810e-03
9.952290e-03
1.461260e-02
2.161780e-02
1.896150e-02
1.783280e-02
1.988180e-02
2.510840e-02
3.351250e-02
-4.093020e-03
-5.774020e-03
-5.399860e-03
-2.970530e-03
1.513970e-03
2.815060e-03
1.434110e-03
1.429200e-03
2.800340e-03
5.547530e-03
1.138530e-02
9.946370e-03
9.200760e-03
9.148510e-03
9.789620e-03
2.161780e-02
1.976280e-02
1.791480e-02
1.607400e-02
1.424020e-02
3.351250e-02
3.088330e-02
2.757130e-02
2.357670e-02
1.889940e-02
1.513970e-03
6.262120e-03
9.861520e-03
1.231220e-02
1.361410e-02
5.547530e-03
1.006370e-02
1.333300e-02
1.535540e-02
1.613090e-02
9.789620e-03
1.385020e-02
1.666050e-02
1.822060e-02
1.853040e-02
1.424020e-02
1.762150e-02
1.984400e-02
2.090770e-02
2.081260e-02
1.889940e-02
2.137780e-02
2.288370e-02
2.341690e-02
2.297750e-02
1.361410e-02
1.555640e-02
1.711260e-02
1.828250e-02
1.906620e-02
1.613090e-02
1.724880e-02
1.819340e-02
1.896470e-02
1.956260e-02
1.853040e-02
1.890260e-02
1.929060e-02
1.969450e-02
2.011420e-02
2.081260e-02
2.051770e-02
2.040410e-02
2.047200e-02
2.072120e-02
2.297750e-02
2.209410e-02
2.153400e-02
2.129710e-02
2.138350e-02
1.906620e-02
2.078000e-02
2.217260e-02
2.324380e-02
2.399380e-02
1.956260e-02
2.128760e-02
2.260910e-02
2.352720e-02
2.404190e-02
2.011420e-02
2.181510e-02
2.304480e-02
2.380330e-02
2.409070e-02
2.072120e-02
2.236260e-02
2.347950e-02
2.407220e-02
2.414040e-02
2.138350e-02
2.293000e-02
2.391340e-02
2.433370e-02
2.419100e-02
2.309330e-02
2.289550e-02
2.271600e-02
2.255480e-02
2.241200e-02
2.348320e-02
2.331890e-02
2.317320e-02
2.304600e-02
2.293750e-02
2.386930e-02
2.373060e-02
2.361330e-02
2.351770e-02
2.344350e-02
2.425160e-02
2.413040e-02
2.403640e-02
2.396970e-02
2.393020e-02
2.463000e-02
2.451850e-02
2.444250e-02
2.440220e-02
2.439740e-02
2.241200e-02
2.206190e-02
2.186750e-02
2.182880e-02
2.194570e-02
2.293750e-02
2.257590e-02
2.236890e-02
2.231640e-02
2.241870e-02
2.344350e-02
2.308520e-02
2.287810e-02
2.282210e-02
2.291720e-02
2.393020e-02
2.359010e-02
2.339520e-02
2.334560e-02
2.344130e-02
2.439740e-02
2.409030e-02
2.392020e-02
2.388710e-02
2.399090e-02
2.194570e-02
2.041210e-02
1.978830e-02
2.007430e-02
2.127000e-02
2.241870e-02
2.107960e-02
2.053890e-02
2.079640e-02
2.185220e-02
2.291720e-02
2.181080e-02
2.137110e-02
2.159800e-02
2.249150e-02
2.344130e-02
2.260570e-02
2.228490e-02
2.247900e-02
2.318790e-02
2.399090e-02
2.346420e-02
2.328040e-02
2.343940e-02
2.394130e-02
2.127000e-02
1.829300e-02
1.711660e-02
1.774080e-02
2.016550e-02
2.185220e-02
1.986550e-02
1.920290e-02
1.986430e-02
2.184980e-02
2.249150e-02
2.128880e-02
2.102990e-02
2.171470e-02
2.334320e-02
2.318790e-02
2.256290e-02
2.259760e-02
2.329190e-02
2.464580e-02
2.394130e-02
2.368790e-02
2.390610e-02
2.459600e-02
2.575740e-02
2.016550e-02
2.557990e-02
2.718400e-02
2.497790e-02
1.896150e-02
2.184980e-02
2.985230e-02
3.433670e-02
3.530290e-02
3.275100e-02
2.334320e-02
3.251250e-02
3.879510e-02
4.219090e-02
4.270010e-02
2.464580e-02
3.356040e-02
4.055920e-02
4.564200e-02
4.880880e-02
2.575740e-02
3.299610e-02
3.962890e-02
4.565590e-02
5.107710e-02
1.896150e-02
1.783280e-02
1.988180e-02
2.510840e-02
3.351250e-02
3.275100e-02
3.241760e-02
3.436020e-02
3.857870e-02
4.507330e-02
4.270010e-02
4.339940e-02
4.537930e-02
4.863970e-02
5.318060e-02
4.880880e-02
5.077830e-02
5.293910e-02
5.529110e-02
5.783450e-02
5.107710e-02
5.455420e-02
5.703960e-02
5.853310e-02
5.903480e-02
3.351250e-02
3.088330e-02
2.757130e-02
2.357670e-02
1.889940e-02
4.507330e-02
3.981990e-02
3.436940e-02
2.872190e-02
2.287730e-02
5.318060e-02
4.607880e-02
3.924410e-02
3.267650e-02
2.637600e-02
5.783450e-02
4.966000e-02
4.219530e-02
3.544050e-02
2.939550e-02
5.903480e-02
5.056350e-02
4.322320e-02
3.701390e-02
3.193580e-02
1.889940e-02
2.137780e-02
2.288370e-02
2.341690e-02
2.297750e-02
2.287730e-02
2.450850e-02
2.535930e-02
2.542970e-02
2.471960e-02
2.637600e-02
2.727320e-02
2.754530e-02
2.719240e-02
2.621430e-02
2.939550e-02
2.967190e-02
2.944180e-02
2.870500e-02
2.746170e-02
3.193580e-02
3.170470e-02
3.104860e-02
2.996770e-02
2.846180e-02
2.297750e-02
2.209410e-02
2.153400e-02
2.129710e-02
2.138350e-02
2.471960e-02
2.353870e-02
2.273130e-02
2.229760e-02
2.223750e-02
2.621430e-02
2.481710e-02
2.382750e-02
2.324580e-02
2.307180e-02
2.746170e-02
2.592930e-02
2.482260e-02
2.414160e-02
2.388630e-02
2.846180e-02
2.687530e-02
2.571640e-02
2.498500e-02
2.468110e-02
2.138350e-02
2.293000e-02
2.391340e-02
2.433370e-02
2.419100e-02
2.223750e-02
2.348710e-02
2.426130e-02
2.456030e-02
2.438390e-02
2.307180e-02
2.402890e-02
2.459960e-02
2.478400e-02
2.458200e-02
2.388630e-02
2.455550e-02
2.492840e-02
2.500500e-02
2.478540e-02
2.468110e-02
2.506680e-02
2.524750e-02
2.522320e-02
2.499400e-02
2.463000e-02
2.451850e-02
2.444250e-02
2.440220e-02
2.439740e-02
2.499690e-02
2.490930e-02
2.485550e-02
2.483550e-02
2.484940e-02
2.534870e-02
2.528830e-02
2.525840e-02
2.525890e-02
2.528980e-02
2.568540e-02
2.565540e-02
2.565100e-02
2.567210e-02
2.571870e-02
2.600690e-02
2.601070e-02
2.603360e-02
2.607540e-02
2.613620e-02
2.439740e-02
2.409030e-02
2.392020e-02
2.388710e-02
2.399090e-02
2.484940e-02
2.459270e-02
2.445660e-02
2.444120e-02
2.454640e-02
2.528980e-02
2.508360e-02
2.498260e-02
2.498670e-02
2.509600e-02
2.571870e-02
2.556310e-02
2.549800e-02
2.552350e-02
2.563970e-02
2.613620e-02
2.603110e-02
2.600300e-02
2.605170e-02
2.617750e-02
2.399090e-02
2.346420e-02
2.328040e-02
2.343940e-02
2.394130e-02
2.454640e-02
2.421570e-02
2.415880e-02
2.437560e-02
2.486610e-02
2.509600e-02
2.491670e-02
2.496160e-02
2.523090e-02
2.572450e-02
2.563970e-02
2.556700e-02
2.568900e-02
2.600550e-02
2.651660e-02
2.617750e-02
2.616680e-02
2.634070e-02
2.669920e-02
2.724230e-02
2.394130e-02
2.368790e-02
2.390610e-02
2.459600e-02
2.575740e-02
2.486610e-02
2.490390e-02
2.532070e-02
2.611650e-02
2.729140e-02
2.572450e-02
2.604860e-02
2.665850e-02
2.755420e-02
2.873570e-02
2.651660e-02
2.712210e-02
2.791950e-02
2.890900e-02
3.009040e-02
2.724230e-02
2.812440e-02
2.910390e-02
3.018090e-02
3.135550e-02
2.575740e-02
3.299610e-02
3.962890e-02
4.565590e-02
5.107710e-02
2.729140e-02
3.324460e-02
3.891160e-02
4.429240e-02
4.938690e-02
2.873570e-02
3.359070e-02
3.836380e-02
4.305490e-02
4.766400e-02
3.009040e-02
3.403440e-02
3.798540e-02
4.194340e-02
4.590840e-02
3.135550e-02
3.457560e-02
3.777640e-02
4.095790e-02
4.412010e-02
5.107710e-02
5.455420e-02
5.703960e-02
5.853310e-02
5.903480e-02
4.938690e-02
5.311360e-02
5.563300e-02
5.694500e-02
5.704960e-02
4.766400e-02
5.129580e-02
5.366590e-02
5.477440e-02
5.462130e-02
4.590840e-02
4.910070e-02
5.113830e-02
5.202130e-02
5.174970e-02
4.412010e-02
4.652840e-02
4.805030e-02
4.868580e-02
4.843500e-02
5.903480e-02
5.056350e-02
4.322320e-02
3.701390e-02
3.193580e-02
5.704960e-02
4.998020e-02
4.379610e-02
3.849730e-02
3.408390e-02
5.462130e-02
4.896440e-02
4.393020e-02
3.951870e-02
3.572990e-02
5.174970e-02
4.751600e-02
4.362540e-02
4.007800e-02
3.687380e-02
4.843500e-02
4.563510e-02
4.288190e-02
4.017540e-02
3.751550e-02
3.193580e-02
3.170470e-02
3.104860e-02
2.996770e-02
2.846180e-02
3.408390e-02
3.312860e-02
3.197450e-02
3.062180e-02
2.907040e-02
3.572990e-02
3.419140e-02
3.265150e-02
3.111020e-02
2.956740e-02
3.687380e-02
3.489320e-02
3.307950e-02
3.143270e-02
2.995290e-02
3.751550e-02
3.523380e-02
3.325850e-02
3.158940e-02
3.022670e-02
2.846180e-02
2.687530e-02
2.571640e-02
2.498500e-02
2.468110e-02
2.907040e-02
2.767850e-02
2.661610e-02
2.588320e-02
2.547960e-02
2.956740e-02
2.836380e-02
2.739900e-02
2.667290e-02
2.618570e-02
2.995290e-02
2.893110e-02
2.806490e-02
2.735420e-02
2.679920e-02
3.022670e-02
2.938050e-02
2.861400e-02
2.792720e-02
2.732010e-02
2.468110e-02
2.506680e-02
2.524750e-02
2.522320e-02
2.499400e-02
2.547960e-02
2.556140e-02
2.554630e-02
2.543450e-02
2.522570e-02
2.618570e-02
2.600430e-02
2.582200e-02
2.563870e-02
2.545460e-02
2.679920e-02
2.639530e-02
2.607430e-02
2.583600e-02
2.568050e-02
2.732010e-02
2.673460e-02
2.630340e-02
2.602630e-02
2.590340e-02
2.600690e-02
2.601070e-02
2.603360e-02
2.607540e-02
2.613620e-02
2.630990e-02
2.634530e-02
2.639530e-02
2.645980e-02
2.653880e-02
2.659390e-02
2.665920e-02
2.673460e-02
2.682020e-02
2.691610e-02
2.685910e-02
2.695230e-02
2.705160e-02
2.715680e-02
2.726810e-02
2.710540e-02
2.722480e-02
2.734610e-02
2.746940e-02
2.759460e-02
2.613620e-02
2.603110e-02
2.600300e-02
2.605170e-02
2.617750e-02
2.653880e-02
2.646900e-02
2.647070e-02
2.654390e-02
2.668860e-02
2.691610e-02
2.687810e-02
2.690580e-02
2.699920e-02
2.715840e-02
2.726810e-02
2.725830e-02
2.730820e-02
2.741770e-02
2.758700e-02
2.759460e-02
2.760960e-02
2.767790e-02
2.779940e-02
2.797430e-02
2.617750e-02
2.616680e-02
2.634070e-02
2.669920e-02
2.724230e-02
2.668860e-02
2.674240e-02
2.695810e-02
2.733560e-02
2.787500e-02
2.715840e-02
2.727320e-02
2.752520e-02
2.791440e-02
2.844080e-02
2.758700e-02
2.775910e-02
2.804200e-02
2.843550e-02
2.893980e-02
2.797430e-02
2.820020e-02
2.850840e-02
2.889900e-02
2.937190e-02
2.724230e-02
2.812440e-02
2.910390e-02
3.018090e-02
3.135550e-02
2.787500e-02
2.881700e-02
2.985230e-02
3.098090e-02
3.220280e-02
2.844080e-02
2.938380e-02
3.041880e-02
3.154600e-02
3.276530e-02
2.893980e-02
2.982470e-02
3.080360e-02
3.187630e-02
3.304290e-02
2.937190e-02
3.013990e-02
3.100650e-02
3.197170e-02
3.303550e-02
3.135550e-02
3.457560e-02
3.777640e-02
4.095790e-02
4.412010e-02
3.220280e-02
3.491740e-02
3.758370e-02
4.020190e-02
4.277190e-02
3.276530e-02
3.504740e-02
3.725800e-02
3.939700e-02
4.146450e-02
3.304290e-02
3.496570e-02
3.679910e-02
3.854310e-02
4.019780e-02
3.303550e-02
3.467210e-02
3.620710e-02
3.764030e-02
3.897190e-02
4.412010e-02
4.652840e-02
4.805030e-02
4.868580e-02
4.843500e-02
4.277190e-02
4.466560e-02
4.584640e-02
4.631430e-02
4.606950e-02
4.146450e-02
4.295760e-02
4.388140e-02
4.423590e-02
4.402120e-02
4.019780e-02
4.140440e-02
4.215530e-02
4.245060e-02
4.229030e-02
3.897190e-02
4.000600e-02
4.066820e-02
4.095840e-02
4.087670e-02
4.843500e-02
4.563510e-02
4.288190e-02
4.017540e-02
3.751550e-02
4.606950e-02
4.384850e-02
4.164180e-02
3.944910e-02
3.727060e-02
4.402120e-02
4.228190e-02
4.052690e-02
3.875630e-02
3.697000e-02
4.229030e-02
4.093520e-02
3.953730e-02
3.809680e-02
3.661360e-02
4.087670e-02
3.980840e-02
3.867300e-02
3.747070e-02
3.620140e-02
3.751550e-02
3.523380e-02
3.325850e-02
3.158940e-02
3.022670e-02
3.727060e-02
3.524400e-02
3.346080e-02
3.192100e-02
3.062460e-02
3.697000e-02
3.518150e-02
3.358200e-02
3.217160e-02
3.095020e-02
3.661360e-02
3.504630e-02
3.362220e-02
3.234130e-02
3.120360e-02
3.620140e-02
3.483840e-02
3.358130e-02
3.243010e-02
3.138490e-02
3.022670e-02
2.938050e-02
2.861400e-02
2.792720e-02
2.732010e-02
3.062460e-02
2.976690e-02
2.898820e-02
2.828860e-02
2.766810e-02
3.095020e-02
3.008240e-02
2.929480e-02
2.858740e-02
2.796020e-02
3.120360e-02
3.032710e-02
2.953370e-02
2.882350e-02
2.819650e-02
3.138490e-02
3.050100e-02
2.970500e-02
2.899700e-02
2.837690e-02
2.732010e-02
2.673460e-02
2.630340e-02
2.602630e-02
2.590340e-02
2.766810e-02
2.707550e-02
2.661470e-02
2.628580e-02
2.608860e-02
2.796020e-02
2.737400e-02
2.689530e-02
2.652400e-02
2.626020e-02
2.819650e-02
2.763020e-02
2.714510e-02
2.674110e-02
2.641820e-02
2.837690e-02
2.784400e-02
2.736400e-02
2.693690e-02
2.656270e-02
2.710540e-02
2.722480e-02
2.734610e-02
2.746940e-02
2.759460e-02
2.733260e-02
2.746790e-02
2.760430e-02
2.774190e-02
2.788060e-02
2.754220e-02
2.769090e-02
2.783980e-02
2.798890e-02
2.813830e-02
2.773410e-02
2.789380e-02
2.805270e-02
2.821070e-02
2.836780e-02
2.790840e-02