<?xml version="1.0"?>
<VTKFile type="UnstructuredGrid" version="0.1" byte_order="LittleEndian" compressor="vtkZLibDataCompressor">
<UnstructuredGrid>
<Piece NumberOfPoints="2500" NumberOfCells="1600">
<Points>
<DataArray type="Float32" NumberOfComponents="3" format="ascii">
-3.630000e+00 0.000000e+00 0.000000e+00
-3.448500e+00 0.000000e+00 0.000000e+00
-3.267000e+00 0.000000e+00 0.000000e+00
-3.085500e+00 0.000000e+00 0.000000e+00
-2.904000e+00 0.000000e+00 0.000000e+00
-3.630000e+00 1.282500e-01 0.000000e+00
-3.448500e+00 1.282500e-01 0.000000e+00
-3.267000e+00 1.282500e-01 0.000000e+00
-3.085500e+00 1.282500e-01 0.000000e+00
-2.904000e+00 1.282500e-01 0.000000e+00
-3.630000e+00 2.565000e-01 0.000000e+00
-3.448500e+00 2.565000e-01 0.000000e+00
-3.267000e+00 2.565000e-01 0.000000e+00
-3.085500e+00 2.565000e-01 0.000000e+00
-2.904000e+00 2.565000e-01 0.000000e+00
-3.630000e+00 3.847500e-01 0.000000e+00
-3.448500e+00 3.847500e-01 0.000000e+00
-3.267000e+00 3.847500e-01 0.000000e+00
-3.085500e+00 3.847500e-01 0.000000e+00
-2.904000e+00 3.847500e-01 0.000000e+00
-3.630000e+00 5.130000e-01 0.000000e+00
-3.448500e+00 5.130000e-01 0.000000e+00
-3.267000e+00 5.130000e-01 0.000000e+00
-3.085500e+00 5.130000e-01 0.000000e+00
-2.904000e+00 5.130000e-01 0.000000e+00
-2.904000e+00 0.000000e+00 0.000000e+00
-2.722500e+00 0.000000e+00 0.000000e+00
-2.541000e+00 0.000000e+00 0.000000e+00
-2.359500e+00 0.000000e+00 0.000000e+00
-2.178000e+00 0.000000e+00 0.000000e+00
-2.904000e+00 1.282500e-01 0.000000e+00
-2.722500e+00 1.282500e-01 0.000000e+00
-2.541000e+00 1.282500e-01 0.000000e+00
-2.359500e+00 1.282500e-01 0.000000e+00
-2.178000e+00 1.282500e-01 0.000000e+00
-2.904000e+00 2.565000e-01 0.000000e+00
-2.722500e+00 2.565000e-01 0.000000e+00
-2.541000e+00 2.565000e-01 0.000000e+00
-2.359500e+00 2.565000e-01 0.000000e+00
-2.178000e+00 2.565000e-01 0.000000e+00
-2.904000e+00 3.847500e-01 0.000000e+00
-2.722500e+00 3.847500e-01 0.000000e+00
-2.541000e+00 3.847500e-01 0.000000e+00
-2.359500e+00 3.847500e-01 0.000000e+00
-2.178000e+00 3.847500e-01 0.000000e+00
-2.904000e+00 5.130000e-01 0.000000e+00
-2.722500e+00 5.130000e-01 0.000000e+00
-2.541000e+00 5.130000e-01 0.000000e+00
-2.359500e+00 5.130000e-01 0.000000e+00
-2.178000e+00 5.130000e-01 0.000000e+00
-2.178000e+00 0.000000e+00 0.000000e+00
-1.996500e+00 0.000000e+00 0.000000e+00
-1.815000e+00 0.000000e+00 0.000000e+00
-1.633500e+00 0.000000e+00 0.000000e+00
-1.452000e+00 0.000000e+00 0.000000e+00
-2.178000e+00 1.282500e-01 0.000000e+00
-1.996500e+00 1.282500e-01 0.000000e+00
-1.815000e+00 1.282500e-01 0.000000e+00
-1.633500e+00 1.282500e-01 0.000000e+00
-1.452000e+00 1.282500e-01 0.000000e+00
-2.178000e+00 2.565000e-01 0.000000e+00
-1.996500e+00 2.565000e-01 0.000000e+00
-1.815000e+00 2.565000e-01 0.000000e+00
-1.633500e+00 2.565000e-01 0.000000e+00
-1.452000e+00 2.565000e-01 0.000000e+00
-2.178000e+00 3.847500e-01 0.000000e+00
-1.996500e+00 3.847500e-01 0.000000e+00
-1.815000e+00 3.847500e-01 0.000000e+00
-1.633500e+00 3.847500e-01 0.000000e+00
-1.452000e+00 3.847500e-01 0.000000e+00
-2.178000e+00 5.130000e-01 0.000000e+00
-1.996500e+00 5.130000e-01 0.000000e+00
-1.815000e+00 5.130000e-01 0.000000e+00
-1.633500e+00 5.130000e-01 0.000000e+00
-1.452000e+00 5.130000e-01 0.000000e+00
-1.452000e+00 0.000000e+00 0.000000e+00
-1.270500e+00 0.000000e+00 0.000000e+00
-1.089000e+00 0.000000e+00 0.000000e+00
-9.075000e-01 0.000000e+00 0.000000e+00
-7.260000e-01 0.000000e+00 0.000000e+00
-1.452000e+00 1.282500e-01 0.000000e+00
-1.270500e+00 1.282500e-01 0.000000e+00
-1.089000e+00 1.282500e-01 0.000000e+00
-9.075000e-01 1.282500e-01 0.000000e+00
-7.260000e-01 1.282500e-01 0.000000e+00
-1.452000e+00 2.565000e-01 0.000000e+00
-1.270500e+00 2.565000e-01 0.000000e+00
-1.089000e+00 2.565000e-01 0.000000e+00
-9.075000e-01 2.565000e-01 0.000000e+00
-7.260000e-01 2.565000e-01 0.000000e+00
-1.452000e+00 3.847500e-01 0.000000e+00
-1.270500e+00 3.847500e-01 0.000000e+00
-1.089000e+00 3.847500e-01 0.000000e+00
-9.075000e-01 3.847500e-01 0.000000e+00
-7.260000e-01 3.847500e-01 0.000000e+00
-1.452000e+00 5.130000e-01 0.000000e+00
-1.270500e+00 5.130000e-01 0.000000e+00
-1.089000e+00 5.130000e-01 0.000000e+00
-9.075000e-01 5.130000e-01 0.000000e+00
-7.260000e-01 5.130000e-01 0.000000e+00
-7.260000e-01 0.000000e+00 0.000000e+00
-5.445000e-01 0.000000e+00 0.000000e+00
-3.630000e-01 0.000000e+00 0.000000e+00
-1.815000e-01 0.000000e+00 0.000000e+00
0.000000e+00 0.000000e+00 0.000000e+00
-7.260000e-01 1.282500e-01 0.000000e+00
-5.445000e-01 1.282500e-01 0.000000e+00
-3.630000e-01 1.282500e-01 0.000000e+00
-1.815000e-01 1.282500e-01 0.000000e+00
0.000000e+00 1.282500e-01 0.000000e+00
-7.260000e-01 2.565000e-01 0.000000e+00
-5.445000e-01 2.565000e-01 0.000000e+00
-3.630000e-01 2.565000e-01 0.000000e+00
-1.815000e-01 2.565000e-01 0.000000e+00
0.000000e+00 2.565000e-01 0.000000e+00
-7.260000e-01 3.847500e-01 0.000000e+00
-5.445000e-01 3.847500e-01 0.000000e+00
-3.630000e-01 3.847500e-01 0.000000e+00
-1.815000e-01 3.847500e-01 0.000000e+00
0.000000e+00 3.847500e-01 0.000000e+00
-7.260000e-01 5.130000e-01 0.000000e+00
-5.445000e-01 5.130000e-01 0.000000e+00
-3.630000e-01 5.130000e-01 0.000000e+00
-1.815000e-01 5.130000e-01 0.000000e+00
0.000000e+00 5.130000e-01 0.000000e+00
0.000000e+00 0.000000e+00 0.000000e+00
1.815000e-01 0.000000e+00 0.000000e+00
3.630000e-01 0.000000e+00 0.000000e+00
5.445000e-01 0.000000e+00 0.000000e+00
7.260000e-01 0.000000e+00 0.000000e+00
0.000000e+00 1.282500e-01 0.000000e+00
1.815000e-01 1.282500e-01 0.000000e+00
3.630000e-01 1.282500e-01 0.000000e+00
5.445000e-01 1.282500e-01 0.000000e+00
7.260000e-01 1.282500e-01 0.000000e+00
0.000000e+00 2.565000e-01 0.000000e+00
1.815000e-01 2.565000e-01 0.000000e+00
3.630000e-01 2.565000e-01 0.000000e+00
5.445000e-01 2.565000e-01 0.000000e+00
7.260000e-01 2.565000e-01 0.000000e+00
0.000000e+00 3.847500e-01 0.000000e+00
1.815000e-01 3.847500e-01 0.000000e+00
3.630000e-01 3.847500e-01 0.000000e+00
5.445000e-01 3.847500e-01 0.000000e+00
7.260000e-01 3.847500e-01 0.000000e+00
0.000000e+00 5.130000e-01 0.000000e+00
1.815000e-01 5.130000e-01 0.000000e+00
3.630000e-01 5.130000e-01 0.000000e+00
5.445000e-01 5.130000e-01 0.000000e+00
7.260000e-01 5.130000e-01 0.000000e+00
7.260000e-01 0.000000e+00 0.000000e+00
9.075000e-01 0.000000e+00 0.000000e+00
1.089000e+00 0.000000e+00 0.000000e+00
1.270500e+00 0.000000e+00 0.000000e+00
1.452000e+00 0.000000e+00 0.000000e+00
7.260000e-01 1.282500e-01 0.000000e+00
9.075000e-01 1.282500e-01 0.000000e+00
1.089000e+00 1.282500e-01 0.000000e+00
1.270500e+00 1.282500e-01 0.000000e+00
1.452000e+00 1.282500e-01 0.000000e+00
7.260000e-01 2.565000e-01 0.000000e+00
9.075000e-01 2.565000e-01 0.000000e+00
1.089000e+00 2.565000e-01 0.000000e+00
1.270500e+00 2.565000e-01 0.000000e+00
1.452000e+00 2.565000e-01 0.000000e+00
7.260000e-01 3.847500e-01 0.000000e+00
9.075000e-01 3.847500e-01 0.000000e+00
1.089000e+00 3.847500e-01 0.000000e+00
1.270500e+00 3.847500e-01 0.000000e+00
1.452000e+00 3.847500e-01 0.000000e+00
7.260000e-01 5.130000e-01 0.000000e+00
9.075000e-01 5.130000e-01 0.000000e+00
1.089000e+00 5.130000e-01 0.000000e+00
1.270500e+00 5.130000e-01 0.000000e+00
1.452000e+00 5.130000e-01 0.000000e+00
1.452000e+00 0.000000e+00 0.000000e+00
1.633500e+00 0.000000e+00 0.000000e+00
1.815000e+00 0.000000e+00 0.000000e+00
1.996500e+00 0.000000e+00 0.000000e+00
2.178000e+00 0.000000e+00 0.000000e+00
1.452000e+00 1.282500e-01 0.000000e+00
1.633500e+00 1.282500e-01 0.000000e+00
1.815000e+00 1.282500e-01 0.000000e+00
1.996500e+00 1.282500e-01 0.000000e+00
2.178000e+00 1.282500e-01 0.000000e+00
1.452000e+00 2.565000e-01 0.000000e+00
1.633500e+00 2.565000e-01 0.000000e+00
1.815000e+00 2.565000e-01 0.000000e+00
1.996500e+00 2.565000e-01 0.000000e+00
2.178000e+00 2.565000e-01 0.000000e+00
1.452000e+00 3.847500e-01 0.000000e+00
1.633500e+00 3.847500e-01 0.000000e+00
1.815000e+00 3.847500e-01 0.000000e+00
1.996500e+00 3.847500e-01 0.000000e+00
2.178000e+00 3.847500e-01 0.000000e+00
1.452000e+00 5.130000e-01 0.000000e+00
1.633500e+00 5.130000e-01 0.000000e+00
1.815000e+00 5.130000e-01 0.000000e+00
1.996500e+00 5.130000e-01 0.000000e+00
2.178000e+00 5.130000e-01 0.000000e+00
2.178000e+00 0.000000e+00 0.000000e+00
2.359500e+00 0.000000e+00 0.000000e+00
2.541000e+00 0.000000e+00 0.000000e+00
2.722500e+00 0.000000e+00 0.000000e+00
2.904000e+00 0.000000e+00 0.000000e+00
2.178000e+00 1.282500e-01 0.000000e+00
2.359500e+00 1.282500e-01 0.000000e+00
2.541000e+00 1.282500e-01 0.000000e+00
2.722500e+00 1.282500e-01 0.000000e+00
2.904000e+00 1.282500e-01 0.000000e+00
2.178000e+00 2.565000e-01 0.000000e+00
2.359500e+00 2.565000e-01 0.000000e+00
2.541000e+00 2.565000e-01 0.000000e+00
2.722500e+00 2.565000e-01 0.000000e+00
2.904000e+00 2.565000e-01 0.000000e+00
2.178000e+00 3.847500e-01 0.000000e+00
2.359500e+00 3.847500e-01 0.000000e+00
2.541000e+00 3.847500e-01 0.000000e+00
2.722500e+00 3.847500e-01 0.000000e+00
2.904000e+00 3.847500e-01 0.000000e+00
2.178000e+00 5.130000e-01 0.000000e+00
2.359500e+00 5.130000e-01 0.000000e+00
2.541000e+00 5.130000e-01 0.000000e+00
2.722500e+00 5.130000e-01 0.000000e+00
2.904000e+00 5.130000e-01 0.000000e+00
2.904000e+00 0.000000e+00 0.000000e+00
3.085500e+00 0.000000e+00 0.000000e+00
3.267000e+00 0.000000e+00 0.000000e+00
3.448500e+00 0.000000e+00 0.000000e+00
3.630000e+00 0.000000e+00 0.000000e+00
2.904000e+00 1.282500e-01 0.000000e+00
3.085500e+00 1.282500e-01 0.000000e+00
3.267000e+00 1.282500e-01 0.000000e+00
3.448500e+00 1.282500e-01 0.000000e+00
3.630000e+00 1.282500e-01 0.000000e+00
2.904000e+00 2.565000e-01 0.000000e+00
3.085500e+00 2.565000e-01 0.000000e+00
3.267000e+00 2.565000e-01 0.000000e+00
3.448500e+00 2.565000e-01 0.000000e+00
3.630000e+00 2.565000e-01 0.000000e+00
2.904000e+00 3.847500e-01 0.000000e+00
3.085500e+00 3.847500e-01 0.000000e+00
3.267000e+00 3.847500e-01 0.000000e+00
3.448500e+00 3.847500e-01 0.000000e+00
3.630000e+00 3.847500e-01 0.000000e+00
2.904000e+00 5.130000e-01 0.000000e+00
[...]
<PointData>
<DataArray type="Float32" Name="V1" format="ascii">
0.000000e+00
0.000000e+00
0.000000e+00
0.000000e+00
0.000000e+00
1.264110e-02
1.103780e-02
9.662340e-03
8.514760e-03
7.595050e-03
2.028400e-02
1.823190e-02
1.640990e-02
1.481810e-02
1.345640e-02
2.292870e-02
2.158230e-02
2.024270e-02
1.891000e-02
1.758400e-02
2.057510e-02
2.108900e-02
2.116080e-02
2.079040e-02
1.997800e-02
0.000000e+00
0.000000e+00
0.000000e+00
0.000000e+00
0.000000e+00
7.595050e-03
6.565520e-03
5.794670e-03
5.282510e-03
5.029040e-03
1.345640e-02
1.192820e-02
1.074510e-02
9.907000e-03
9.413980e-03
1.758400e-02
1.608810e-02
1.485120e-02
1.387350e-02
1.315480e-02
1.997800e-02
1.904510e-02
1.811310e-02
1.718190e-02
1.625150e-02
0.000000e+00
0.000000e+00
0.000000e+00
0.000000e+00
0.000000e+00
5.029040e-03
4.831360e-03
4.684680e-03
4.589000e-03
4.544330e-03
9.413980e-03
9.031950e-03
8.715260e-03
8.463910e-03
8.277900e-03
1.315480e-02
1.260180e-02
1.209170e-02
1.162470e-02
1.120070e-02
1.625150e-02
1.554080e-02
1.481410e-02
1.407140e-02
1.331280e-02
0.000000e+00
0.000000e+00
0.000000e+00
0.000000e+00
0.000000e+00
4.544330e-03
3.675780e-03
3.827630e-03
4.999870e-03
7.192510e-03
8.277900e-03
6.525610e-03
6.562700e-03
8.389160e-03
1.200500e-02
1.120070e-02
8.549500e-03
8.205220e-03
1.016780e-02
1.443740e-02
1.331280e-02
9.747440e-03
8.755170e-03
1.033600e-02
1.448980e-02
0.000000e+00
0.000000e+00
0.000000e+00
0.000000e+00
0.000000e+00
7.192510e-03
5.683290e-03
1.792250e-03
-4.480600e-03
-1.313530e-02
1.200500e-02
8.084030e-03
8.255360e-04
-9.770500e-03
-2.370410e-02
1.443740e-02
7.202230e-03
-2.900130e-03
-1.586970e-02
-3.170640e-02
1.448980e-02
3.037890e-03
-9.384760e-03
-2.277820e-02
-3.714230e-02
0.000000e+00
0.000000e+00
0.000000e+00
0.000000e+00
0.000000e+00
-1.313530e-02
-1.405540e-02
-1.512600e-02
-1.634690e-02
-1.771810e-02
-2.370410e-02
-2.410640e-02
-2.507520e-02
-2.661060e-02
-2.871240e-02
-3.170640e-02
-3.015290e-02
-2.984780e-02
-3.079110e-02
-3.298300e-02
-3.714230e-02
-3.219480e-02
-2.944360e-02
-2.888850e-02
-3.052970e-02
0.000000e+00
0.000000e+00
0.000000e+00
0.000000e+00
0.000000e+00
-1.771810e-02
-1.698330e-02
-1.501290e-02
-1.180670e-02
-7.364910e-03
-2.871240e-02
-2.719320e-02
-2.381280e-02
-1.857110e-02
-1.146810e-02
-3.298300e-02
-3.062970e-02
-2.639970e-02
-2.029300e-02
-1.230940e-02
-3.052970e-02
-2.729280e-02
-2.277370e-02
-1.697250e-02
-9.889080e-03
0.000000e+00
0.000000e+00
0.000000e+00
0.000000e+00
0.000000e+00
-7.364910e-03
-4.592420e-03
-2.162030e-03
-7.373200e-05
1.672480e-03
-1.146810e-02
-6.926780e-03
-2.955240e-03
4.465660e-04
3.278630e-03
-1.230940e-02
-7.003060e-03
-2.379620e-03
1.560890e-03
4.818460e-03
-9.889080e-03
-4.821280e-03
-4.351670e-04
3.269250e-03
6.291970e-03
0.000000e+00
0.000000e+00
0.000000e+00
0.000000e+00
0.000000e+00
1.672480e-03
3.577070e-03
5.071680e-03
6.156290e-03
6.830910e-03
3.278630e-03
6.401920e-03
8.872760e-03
1.069120e-02
1.185710e-02
4.818460e-03
8.474530e-03
1.140320e-02
1.360460e-02
1.507860e-02
6.291970e-03
9.794920e-03
1.266310e-02
1.489660e-02
1.649530e-02
0.000000e+00
0.000000e+00
0.000000e+00
0.000000e+00
0.000000e+00
6.830910e-03
7.441890e-03
8.077920e-03
8.738990e-03
9.425100e-03
1.185710e-02
1.296320e-02
1.406970e-02
1.517660e-02
1.628390e-02
1.507860e-02
1.656390e-02
1.797530e-02
1.931270e-02
2.057620e-02
1.649530e-02
1.824400e-02
1.979470e-02
2.114750e-02
2.230230e-02
2.057510e-02
2.108900e-02
2.116080e-02
2.079040e-02
1.997800e-02
2.078850e-02
2.097580e-02
2.099960e-02
2.085990e-02
2.055660e-02
2.103660e-02
2.096310e-02
2.091190e-02
2.088290e-02
2.087610e-02
2.131930e-02
2.105100e-02
2.089770e-02
2.085960e-02
2.093650e-02
2.163650e-02
2.123930e-02
2.095710e-02
2.078980e-02
2.073770e-02
1.997800e-02
1.904510e-02
1.811310e-02
1.718190e-02
1.625150e-02
2.055660e-02
2.010020e-02
1.954780e-02
1.889930e-02
1.815490e-02
2.087610e-02
2.075040e-02
2.048330e-02
2.007490e-02
1.952520e-02
2.093650e-02
2.099560e-02
2.091970e-02
2.070860e-02
2.036230e-02
2.073770e-02
2.083600e-02
2.085690e-02
2.080030e-02
2.066640e-02
1.625150e-02
1.554080e-02
1.481410e-02
1.407140e-02
1.331280e-02
1.815490e-02
1.739090e-02
1.655960e-02
1.566080e-02
1.469470e-02
1.952520e-02
1.870670e-02
1.782620e-02
1.688360e-02
1.587880e-02
2.036230e-02
1.948820e-02
1.861390e-02
1.773960e-02
1.686510e-02
2.066640e-02
1.973530e-02
1.892290e-02
1.822890e-02
1.765350e-02
1.331280e-02
9.747440e-03
8.755170e-03
1.033600e-02
1.448980e-02
1.469470e-02
1.062120e-02
9.152540e-03
1.028870e-02
1.402970e-02
1.587880e-02
1.139800e-02
9.568680e-03
1.039100e-02
1.386490e-02
1.686510e-02
1.207770e-02
1.000360e-02
1.064280e-02
1.399540e-02
1.765350e-02
1.266040e-02
1.045730e-02
1.104420e-02
1.442120e-02
1.448980e-02
3.037890e-03
-9.384760e-03
-2.277820e-02
-3.714230e-02
1.402970e-02
1.131080e-04
-1.306650e-02
-2.550900e-02
-3.721440e-02
1.386490e-02
-1.121660e-03
-1.427750e-02
-2.560250e-02
-3.509680e-02
1.399540e-02
-6.664230e-04
-1.301790e-02
-2.305890e-02
-3.078950e-02
1.442120e-02
1.478820e-03
-9.287550e-03
-1.787800e-02
-2.429240e-02
-3.714230e-02
-3.219480e-02
-2.944360e-02
-2.888850e-02
-3.052970e-02
-3.721440e-02
-3.069350e-02
-2.669740e-02
-2.522620e-02
-2.627990e-02
-3.509680e-02
-2.766690e-02
-2.277650e-02
-2.042580e-02
-2.061480e-02
-3.078950e-02
-2.311500e-02
-1.768100e-02
-1.448750e-02
-1.353440e-02
-2.429240e-02
-1.703790e-02
-1.141080e-02
-7.411070e-03
-5.038740e-03
-3.052970e-02
-2.729280e-02
-2.277370e-02
-1.697250e-02
-9.889080e-03
-2.627990e-02
-2.497060e-02
-2.158310e-02
-1.611750e-02
-8.573710e-03
-2.061480e-02
-2.078780e-02
-1.845560e-02
-1.361820e-02
-6.275770e-03
-1.353440e-02
-1.474440e-02
-1.339120e-02
-9.474810e-03
-2.995270e-03
-5.038740e-03
-6.840440e-03
-6.389920e-03
-3.687180e-03
1.267790e-03
-9.889080e-03
-4.821280e-03
-4.351670e-04
3.269250e-03
6.291970e-03
-8.573710e-03
-3.338280e-03
1.089770e-03
4.710450e-03
7.523750e-03
-6.275770e-03
-1.074990e-03
3.218820e-03
6.605650e-03
9.085500e-03
-2.995270e-03
1.968590e-03
5.951960e-03
8.954830e-03
1.097720e-02
1.267790e-03
5.792460e-03
9.289200e-03
1.175800e-02
1.319890e-02
6.291970e-03
9.794920e-03
1.266310e-02
1.489660e-02
1.649530e-02
7.523750e-03
1.094310e-02
1.371190e-02
1.583010e-02
1.729780e-02
9.085500e-03
1.224440e-02
1.477790e-02
1.668600e-02
1.796870e-02
1.097720e-02
1.369890e-02
1.586130e-02
1.746430e-02
1.850800e-02
1.319890e-02
1.530660e-02
1.696200e-02
1.816500e-02
1.891570e-02
1.649530e-02
1.824400e-02
1.979470e-02
2.114750e-02
2.230230e-02
1.729780e-02
1.910590e-02
2.069300e-02
2.205930e-02
2.320460e-02
1.796870e-02
1.978960e-02
2.136380e-02
2.269120e-02
2.377180e-02
1.850800e-02
2.029530e-02
2.180700e-02
2.304310e-02
2.400360e-02
1.891570e-02
2.062280e-02
2.202260e-02
2.311510e-02
2.390020e-02
2.163650e-02
2.123930e-02
2.095710e-02
2.078980e-02
2.073770e-02
2.197900e-02
2.159350e-02
2.130560e-02
2.111530e-02
2.102250e-02
2.233590e-02
2.198750e-02
2.171490e-02
2.151790e-02
2.139670e-02
2.270730e-02
2.242130e-02
2.218480e-02
2.199770e-02
2.186000e-02
2.309330e-02
2.289490e-02
2.271540e-02
2.255460e-02
2.241270e-02
2.073770e-02
2.083600e-02
2.085690e-02
2.080030e-02
2.066640e-02
2.102250e-02
2.098470e-02
2.095580e-02
2.093570e-02
2.092450e-02
2.139670e-02
2.124190e-02
2.116230e-02
2.115790e-02
2.122860e-02
2.186000e-02
2.160750e-02
2.147650e-02
2.146690e-02
2.157890e-02
2.241270e-02
2.208160e-02
2.189830e-02
2.186290e-02
2.197520e-02
2.066640e-02
1.973530e-02
1.892290e-02
1.822890e-02
1.765350e-02
2.092450e-02
1.981040e-02
1.905410e-02
1.865570e-02
1.861510e-02
2.122860e-02
1.997280e-02
1.927350e-02
1.913070e-02
1.954450e-02
2.157890e-02
2.022250e-02
1.958080e-02
1.965400e-02
2.044190e-02
2.197520e-02
2.055950e-02
1.997630e-02
2.022550e-02
2.130720e-02
1.765350e-02
1.266040e-02
1.045730e-02
1.104420e-02
1.442120e-02
1.861510e-02
1.373780e-02
1.160770e-02
1.222500e-02
1.558950e-02
1.954450e-02
1.503130e-02
1.310780e-02
1.377420e-02
1.703050e-02
2.044190e-02
1.654090e-02
1.495750e-02
1.569190e-02
1.874410e-02
2.130720e-02
1.826660e-02
1.715690e-02
1.797810e-02
2.073020e-02
1.442120e-02
1.478820e-03
-9.287550e-03
-1.787800e-02
-2.429240e-02
1.558950e-02
6.956020e-03
-9.725140e-04
-8.196100e-03
-1.471470e-02
1.703050e-02
1.275410e-02
7.701260e-03
1.871880e-03
-4.734020e-03
1.874410e-02
1.887310e-02
1.673380e-02
1.232600e-02
5.649720e-03
2.073020e-02
2.531310e-02
2.612500e-02
2.316620e-02
1.643650e-02
-2.429240e-02
-1.703790e-02
-1.141080e-02
-7.411070e-03
-5.038740e-03
-1.471470e-02
-9.945440e-03
-5.591010e-03
-1.651430e-03
1.873290e-03
-4.734020e-03
-2.007380e-03
1.427950e-03
5.571980e-03
1.042470e-02
5.649720e-03
6.776280e-03
9.646100e-03
1.425920e-02
2.061550e-02
1.643650e-02
1.640550e-02
1.906340e-02
2.441010e-02
3.244570e-02
-5.038740e-03
-6.840440e-03
-6.389920e-03
-3.687180e-03
1.267790e-03
1.873290e-03
3.734540e-04
4.528060e-04
2.111340e-03
5.349060e-03
1.042470e-02
8.954800e-03
8.340760e-03
8.582580e-03
9.680270e-03
2.061550e-02
1.890360e-02
1.727390e-02
1.572650e-02
1.426140e-02
3.244570e-02
3.021980e-02
2.725230e-02
2.354320e-02
1.909250e-02
1.267790e-03
5.792460e-03
9.289200e-03
1.175800e-02
1.319890e-02
5.349060e-03
9.662190e-03
1.284080e-02
1.488470e-02
1.579420e-02
9.680270e-03
1.353850e-02
1.625800e-02
1.783860e-02
1.828050e-02
1.426140e-02
1.742140e-02
1.954080e-02
2.061960e-02
2.065790e-02
1.909250e-02
2.131090e-02
2.268930e-02
2.322780e-02
2.292630e-02
1.319890e-02
1.530660e-02
1.696200e-02
1.816500e-02
1.891570e-02
1.579420e-02
1.704840e-02
1.806700e-02
1.885010e-02
1.939740e-02
1.828050e-02
1.875560e-02
1.919030e-02
1.958470e-02
1.993860e-02
2.065790e-02
2.042810e-02
2.033180e-02
2.036890e-02
2.053930e-02
2.292630e-02
2.206610e-02
2.149150e-02
2.120260e-02
2.119950e-02
1.891570e-02
2.062280e-02
2.202260e-02
2.311510e-02
2.390020e-02
1.939740e-02
2.114890e-02
2.249260e-02
2.342880e-02
2.395730e-02
1.993860e-02
2.169640e-02
2.296170e-02
2.373430e-02
2.401440e-02
2.053930e-02
2.226550e-02
2.342960e-02
2.403150e-02
2.407130e-02
2.119950e-02
2.285620e-02
2.389650e-02
2.432060e-02
2.412820e-02
2.309330e-02
2.289490e-02
2.271540e-02
2.255460e-02
2.241270e-02
2.348320e-02
2.331950e-02
2.317420e-02
2.304730e-02
2.293870e-02
2.386930e-02
2.373220e-02
2.361590e-02
2.352020e-02
2.344530e-02
2.425160e-02
2.413310e-02
2.404040e-02
2.397350e-02
2.393240e-02
2.463000e-02
2.452210e-02
2.444780e-02
2.440710e-02
2.440000e-02
2.241270e-02
2.208160e-02
2.189830e-02
2.186290e-02
2.197520e-02
2.293870e-02
2.259640e-02
2.239970e-02
2.234870e-02
2.244330e-02
2.344530e-02
2.310570e-02
2.290790e-02
2.285190e-02
2.293760e-02
2.393240e-02
2.360950e-02
2.342290e-02
2.337250e-02
2.345840e-02
2.440000e-02
2.410780e-02
2.394460e-02
2.391050e-02
2.400550e-02
2.197520e-02
2.055950e-02
1.997630e-02
2.022550e-02
2.130720e-02
2.244330e-02
2.120030e-02
2.069120e-02
2.091600e-02
2.187470e-02
2.293760e-02
2.190170e-02
2.148380e-02
2.168400e-02
2.250220e-02
2.345840e-02
2.266380e-02
2.235410e-02
2.252930e-02
2.318950e-02
2.400550e-02
2.348650e-02
2.330210e-02
2.345210e-02
2.393670e-02
2.130720e-02
1.826660e-02
1.715690e-02
1.797810e-02
2.073020e-02
2.187470e-02
1.982080e-02
1.918750e-02
1.997460e-02
2.218230e-02
2.250220e-02
2.123860e-02
2.098190e-02
2.173190e-02
2.348870e-02
2.318950e-02
2.252000e-02
2.254010e-02
2.324990e-02
2.464940e-02
2.393670e-02
2.366480e-02
2.386220e-02
2.452870e-02
2.566450e-02
2.073020e-02
2.531310e-02
2.612500e-02
2.316620e-02
1.643650e-02
2.218230e-02
2.956010e-02
3.336430e-02
3.359480e-02
3.025180e-02
2.348870e-02
3.220020e-02
3.793530e-02
4.069390e-02
4.047620e-02
2.464940e-02
3.323340e-02
3.983810e-02
4.446350e-02
4.710950e-02
2.566450e-02
3.265970e-02
3.907270e-02
4.490340e-02
5.015190e-02
1.643650e-02
1.640550e-02
1.906340e-02
2.441010e-02
3.244570e-02
3.025180e-02
3.059540e-02
3.303960e-02
3.758450e-02
4.422990e-02
4.047620e-02
4.156380e-02
4.396110e-02
4.766830e-02
5.268510e-02
4.710950e-02
4.931070e-02
5.182800e-02
5.466160e-02
5.781130e-02
5.015190e-02
5.383610e-02
5.664020e-02
5.856430e-02
5.960840e-02
3.244570e-02
3.021980e-02
2.725230e-02
2.354320e-02
1.909250e-02
4.422990e-02
3.950630e-02
3.441030e-02
2.894180e-02
2.310100e-02
5.268510e-02
4.610010e-02
3.956070e-02
3.306690e-02
2.661890e-02
5.781130e-02
5.000100e-02
4.270340e-02
3.591850e-02
2.964620e-02
5.960840e-02
5.120930e-02
4.383860e-02
3.749650e-02
3.218290e-02
1.909250e-02
2.131090e-02
2.268930e-02
2.322780e-02
2.292630e-02
2.310100e-02
2.455350e-02
2.532170e-02
2.540560e-02
2.480520e-02
2.661890e-02
2.741680e-02
2.764780e-02
2.731180e-02
2.640880e-02
2.964620e-02
2.990090e-02
2.966760e-02
2.894630e-02
2.773700e-02
3.218290e-02
3.200570e-02
3.138110e-02
3.030920e-02
2.878990e-02
2.292630e-02
2.206610e-02
2.149150e-02
2.120260e-02
2.119950e-02
2.480520e-02
2.357450e-02
2.270720e-02
2.220330e-02
2.206280e-02
2.640880e-02
2.490290e-02
2.381840e-02
2.315520e-02
2.291340e-02
2.773700e-02
2.605140e-02
2.482520e-02
2.405850e-02
2.375110e-02
2.878990e-02
2.701990e-02
2.572760e-02
2.491300e-02
2.457610e-02
2.119950e-02
2.285620e-02
2.389650e-02
2.432060e-02
2.412820e-02
2.206280e-02
2.342980e-02
2.426390e-02
2.456520e-02
2.433370e-02
2.291340e-02
2.398980e-02
2.462020e-02
2.480450e-02
2.454270e-02
2.375110e-02
2.453630e-02
2.496540e-02
2.503830e-02
2.475520e-02
2.457610e-02
2.506920e-02
2.529940e-02
2.526680e-02
2.497130e-02
2.463000e-02
2.452210e-02
2.444780e-02
2.440710e-02
2.440000e-02
2.499690e-02
2.491270e-02
2.486060e-02
2.484050e-02
2.485250e-02
2.534870e-02
2.529140e-02
2.526300e-02
2.526350e-02
2.529300e-02
2.568540e-02
2.565820e-02
2.565510e-02
2.567630e-02
2.572170e-02
2.600690e-02
2.601310e-02
2.603700e-02
2.607880e-02
2.613840e-02
2.440000e-02
2.410780e-02
2.394460e-02
2.391050e-02
2.400550e-02
2.485250e-02
2.460620e-02
2.447480e-02
2.445830e-02
2.455660e-02
2.529300e-02
2.509360e-02
2.499500e-02
2.499730e-02
2.510060e-02
2.572170e-02
2.556980e-02
2.550520e-02
2.552780e-02
2.563750e-02
2.613840e-02
2.603500e-02
2.600540e-02
2.604950e-02
2.616740e-02
2.400550e-02
2.348650e-02
2.330210e-02
2.345210e-02
2.393670e-02
2.455660e-02
2.421910e-02
2.415220e-02
2.435580e-02
2.483000e-02
2.510060e-02
2.490700e-02
2.493580e-02
2.518700e-02
2.566050e-02
2.563750e-02
2.555030e-02
2.565300e-02
2.594570e-02
2.642830e-02
2.616740e-02
2.614890e-02
2.630370e-02
2.663190e-02
2.713340e-02
2.393670e-02
2.366480e-02
2.386220e-02
2.452870e-02
2.566450e-02
2.483000e-02
2.484480e-02
2.522620e-02
2.597400e-02
2.708840e-02
2.566050e-02
2.595260e-02
2.651360e-02
2.734350e-02
2.844240e-02
2.642830e-02
2.698810e-02
2.772440e-02
2.863720e-02
2.972660e-02
2.713340e-02
2.795130e-02
2.885850e-02
2.985500e-02
3.094090e-02
2.566450e-02
3.265970e-02
3.907270e-02
4.490340e-02
5.015190e-02
2.708840e-02
3.277080e-02
3.823900e-02
4.349300e-02
4.853270e-02
2.844240e-02
3.302520e-02
3.761980e-02
4.222640e-02
4.684480e-02
2.972660e-02
3.342270e-02
3.721500e-02
4.110350e-02
4.508810e-02
3.094090e-02
3.396340e-02
3.702450e-02
4.012430e-02
4.326270e-02
5.015190e-02
5.383610e-02
5.664020e-02
5.856430e-02
5.960840e-02
4.853270e-02
5.256170e-02
5.542460e-02
5.712140e-02
5.765220e-02
4.684480e-02
5.082550e-02
5.354470e-02
5.500250e-02
5.519890e-02
4.508810e-02
4.862740e-02
5.100060e-02
5.220770e-02
5.224870e-02
4.326270e-02
4.596750e-02
4.779220e-02
4.873680e-02
4.880140e-02
5.960840e-02
5.120930e-02
4.383860e-02
3.749650e-02
3.218290e-02
5.765220e-02
5.062940e-02
4.441790e-02
3.901770e-02
3.442870e-02
5.519890e-02
4.958400e-02
4.453520e-02
4.005240e-02
3.613570e-02
5.224870e-02
4.807310e-02
4.419040e-02
4.060070e-02
3.730390e-02
4.880140e-02
4.609660e-02
4.338360e-02
4.066260e-02
3.793340e-02
3.218290e-02
3.200570e-02
3.138110e-02
3.030920e-02
2.878990e-02
3.442870e-02
3.348190e-02
3.232290e-02
3.095170e-02
2.936820e-02
3.613570e-02
3.457210e-02
3.300080e-02
3.142170e-02
2.983500e-02
3.730390e-02
3.527620e-02
3.341470e-02
3.171940e-02
3.019020e-02
3.793340e-02
3.559430e-02
3.356470e-02
3.184460e-02
3.043390e-02
2.878990e-02
2.701990e-02
2.572760e-02
2.491300e-02
2.457610e-02
2.936820e-02
2.782980e-02
2.666120e-02
2.586230e-02
2.543310e-02
2.983500e-02
2.851940e-02
2.747350e-02
2.669740e-02
2.619100e-02
3.019020e-02
2.908850e-02
2.816450e-02
2.741820e-02
2.684960e-02
3.043390e-02
2.953730e-02
2.873430e-02
2.802480e-02
2.740910e-02
2.457610e-02
2.506920e-02
2.529940e-02
2.526680e-02
2.497130e-02
2.543310e-02
2.557990e-02
2.559330e-02
2.547360e-02
2.522050e-02
2.619100e-02
2.603620e-02
2.586390e-02
2.567410e-02
2.546680e-02
2.684960e-02
2.643830e-02
2.611120e-02
2.586850e-02
2.571020e-02
2.740910e-02
2.678600e-02
2.633520e-02
2.605680e-02
2.595060e-02
2.600690e-02
2.601310e-02
2.603700e-02
2.607880e-02
2.613840e-02
2.630990e-02
2.634720e-02
2.639800e-02
2.646240e-02
2.654030e-02
2.659390e-02
2.666070e-02
2.673670e-02
2.682220e-02
2.691690e-02
2.685910e-02
2.695350e-02
2.705310e-02
2.715810e-02
2.726840e-02
2.710540e-02
2.722560e-02
2.734710e-02
2.747010e-02
2.759460e-02
2.613840e-02
2.603500e-02
2.600540e-02
2.604950e-02
2.616740e-02
2.654030e-02
2.647140e-02
2.647050e-02
2.653780e-02
2.667310e-02
2.691690e-02
2.687930e-02
2.690380e-02
2.699040e-02
2.713930e-02
2.726840e-02
2.725870e-02
2.730500e-02
2.740740e-02
2.756580e-02
2.759460e-02
2.760960e-02
2.767430e-02
2.778870e-02
2.795280e-02
2.616740e-02
2.614890e-02
2.630370e-02
2.663190e-02
2.713340e-02
2.667310e-02
2.671760e-02
2.691380e-02
2.726150e-02
2.776080e-02
2.713930e-02
2.724240e-02
2.747430e-02
2.783480e-02
2.832410e-02
2.756580e-02
2.772320e-02
2.798520e-02
2.835200e-02
2.882360e-02
2.795280e-02
2.815990e-02
2.844670e-02
2.881310e-02
2.925910e-02
2.713340e-02
2.795130e-02
2.885850e-02
2.985500e-02
3.094090e-02
2.776080e-02
2.863640e-02
2.960250e-02
3.065880e-02
3.180550e-02
2.832410e-02
2.920350e-02
3.017530e-02
3.123980e-02
3.239690e-02
2.882360e-02
2.965240e-02
3.057720e-02
3.159810e-02
3.271520e-02
2.925910e-02
2.998320e-02
3.080800e-02
3.173370e-02
3.276020e-02
3.094090e-02
3.396340e-02
3.702450e-02
4.012430e-02
4.326270e-02
3.180550e-02
3.437780e-02
3.695230e-02
3.952890e-02
4.210770e-02
3.239690e-02
3.458190e-02
3.673740e-02
3.886350e-02
4.096020e-02
3.271520e-02
3.457560e-02
3.637990e-02
3.812810e-02
3.982010e-02
3.276020e-02
3.435910e-02
3.587990e-02
3.732270e-02
3.868750e-02
4.326270e-02
4.596750e-02
4.779220e-02
4.873680e-02
4.880140e-02
4.210770e-02
4.425710e-02
4.568710e-02
4.639790e-02
4.638950e-02
4.096020e-02
4.266310e-02
4.378490e-02
4.432540e-02
4.428480e-02
3.982010e-02
4.118560e-02
4.208530e-02
4.251930e-02
4.248740e-02
3.868750e-02
3.982460e-02
4.058860e-02
4.097950e-02
4.099730e-02
4.880140e-02
4.609660e-02
4.338360e-02
4.066260e-02
3.793340e-02
4.638950e-02
4.423910e-02
4.206570e-02
3.986930e-02
3.764990e-02
4.428480e-02
4.260340e-02
4.088070e-02
3.911650e-02
3.731080e-02
4.248740e-02
4.118970e-02
3.982860e-02
3.840410e-02
3.691620e-02
4.099730e-02
3.999790e-02
3.890950e-02
3.773220e-02
3.646600e-02
3.793340e-02
3.559430e-02
3.356470e-02
3.184460e-02
3.043390e-02
3.764990e-02
3.557770e-02
3.374910e-02
3.216400e-02
3.082250e-02
3.731080e-02
3.548690e-02
3.385040e-02
3.240130e-02
3.113970e-02
3.691620e-02
3.532190e-02
3.386870e-02
3.255650e-02
3.138530e-02
3.646600e-02
3.508280e-02
3.380400e-02
3.262950e-02
3.155940e-02
3.043390e-02
2.953730e-02
2.873430e-02
2.802480e-02
2.740910e-02
3.082250e-02
2.992330e-02
2.911390e-02
2.839460e-02
2.776520e-02
3.113970e-02
3.023780e-02
2.942430e-02
2.869900e-02
2.806200e-02
3.138530e-02
3.048090e-02
2.966520e-02
2.893810e-02
2.829960e-02
3.155940e-02
3.065260e-02
2.983670e-02
2.911190e-02
2.847800e-02
2.740910e-02
2.678600e-02
2.633520e-02
2.605680e-02
2.595060e-02
2.776520e-02
2.713930e-02
2.665980e-02
2.632680e-02
2.614010e-02
2.806200e-02
2.744790e-02
2.695200e-02
2.657450e-02
2.631540e-02
2.829960e-02
2.771170e-02
2.721180e-02
2.680010e-02
2.647640e-02
2.847800e-02
2.793080e-02
2.743930e-02
2.700340e-02
2.662310e-02
2.710540e-02
2.722560e-02
2.734710e-02
2.747010e-02
2.759460e-02
2.733260e-02
2.746850e-02
2.760510e-02
2.774230e-02
2.788020e-02
2.754220e-02
2.769150e-02
2.784050e-02
2.798920e-02
2.813760e-02
2.773410e-02
2.789440e-02
2.805330e-02
2.821080e-02
2.836690e-02
2.790840e-02