<?xml version="1.0"?>
<VTKFile type="UnstructuredGrid" version="0.1" byte_order="LittleEndian" compressor="vtkZLibDataCompressor">
<UnstructuredGrid>
<Piece NumberOfPoints="2500" NumberOfCells="1600">
<Points>
<DataArray type="Float32" NumberOfComponents="3" format="ascii">
-3.630000e+00 0.000000e+00 0.000000e+00
-3.448500e+00 0.000000e+00 0.000000e+00
-3.267000e+00 0.000000e+00 0.000000e+00
-3.085500e+00 0.000000e+00 0.000000e+00
-2.904000e+00 0.000000e+00 0.000000e+00
-3.630000e+00 1.282500e-01 0.000000e+00
-3.448500e+00 1.282500e-01 0.000000e+00
-3.267000e+00 1.282500e-01 0.000000e+00
-3.085500e+00 1.282500e-01 0.000000e+00
-2.904000e+00 1.282500e-01 0.000000e+00
-3.630000e+00 2.565000e-01 0.000000e+00
-3.448500e+00 2.565000e-01 0.000000e+00
-3.267000e+00 2.565000e-01 0.000000e+00
-3.085500e+00 2.565000e-01 0.000000e+00
-2.904000e+00 2.565000e-01 0.000000e+00
-3.630000e+00 3.847500e-01 0.000000e+00
-3.448500e+00 3.847500e-01 0.000000e+00
-3.267000e+00 3.847500e-01 0.000000e+00
-3.085500e+00 3.847500e-01 0.000000e+00
-2.904000e+00 3.847500e-01 0.000000e+00
-3.630000e+00 5.130000e-01 0.000000e+00
-3.448500e+00 5.130000e-01 0.000000e+00
-3.267000e+00 5.130000e-01 0.000000e+00
-3.085500e+00 5.130000e-01 0.000000e+00
-2.904000e+00 5.130000e-01 0.000000e+00
-2.904000e+00 0.000000e+00 0.000000e+00
-2.722500e+00 0.000000e+00 0.000000e+00
-2.541000e+00 0.000000e+00 0.000000e+00
-2.359500e+00 0.000000e+00 0.000000e+00
-2.178000e+00 0.000000e+00 0.000000e+00
-2.904000e+00 1.282500e-01 0.000000e+00
-2.722500e+00 1.282500e-01 0.000000e+00
-2.541000e+00 1.282500e-01 0.000000e+00
-2.359500e+00 1.282500e-01 0.000000e+00
-2.178000e+00 1.282500e-01 0.000000e+00
-2.904000e+00 2.565000e-01 0.000000e+00
-2.722500e+00 2.565000e-01 0.000000e+00
-2.541000e+00 2.565000e-01 0.000000e+00
-2.359500e+00 2.565000e-01 0.000000e+00
-2.178000e+00 2.565000e-01 0.000000e+00
-2.904000e+00 3.847500e-01 0.000000e+00
-2.722500e+00 3.847500e-01 0.000000e+00
-2.541000e+00 3.847500e-01 0.000000e+00
-2.359500e+00 3.847500e-01 0.000000e+00
-2.178000e+00 3.847500e-01 0.000000e+00
-2.904000e+00 5.130000e-01 0.000000e+00
-2.722500e+00 5.130000e-01 0.000000e+00
-2.541000e+00 5.130000e-01 0.000000e+00
-2.359500e+00 5.130000e-01 0.000000e+00
-2.178000e+00 5.130000e-01 0.000000e+00
-2.178000e+00 0.000000e+00 0.000000e+00
-1.996500e+00 0.000000e+00 0.000000e+00
-1.815000e+00 0.000000e+00 0.000000e+00
-1.633500e+00 0.000000e+00 0.000000e+00
-1.452000e+00 0.000000e+00 0.000000e+00
-2.178000e+00 1.282500e-01 0.000000e+00
-1.996500e+00 1.282500e-01 0.000000e+00
-1.815000e+00 1.282500e-01 0.000000e+00
-1.633500e+00 1.282500e-01 0.000000e+00
-1.452000e+00 1.282500e-01 0.000000e+00
-2.178000e+00 2.565000e-01 0.000000e+00
-1.996500e+00 2.565000e-01 0.000000e+00
-1.815000e+00 2.565000e-01 0.000000e+00
-1.633500e+00 2.565000e-01 0.000000e+00
-1.452000e+00 2.565000e-01 0.000000e+00
-2.178000e+00 3.847500e-01 0.000000e+00
-1.996500e+00 3.847500e-01 0.000000e+00
-1.815000e+00 3.847500e-01 0.000000e+00
-1.633500e+00 3.847500e-01 0.000000e+00
-1.452000e+00 3.847500e-01 0.000000e+00
-2.178000e+00 5.130000e-01 0.000000e+00
-1.996500e+00 5.130000e-01 0.000000e+00
-1.815000e+00 5.130000e-01 0.000000e+00
-1.633500e+00 5.130000e-01 0.000000e+00
-1.452000e+00 5.130000e-01 0.000000e+00
-1.452000e+00 0.000000e+00 0.000000e+00
-1.270500e+00 0.000000e+00 0.000000e+00
-1.089000e+00 0.000000e+00 0.000000e+00
-9.075000e-01 0.000000e+00 0.000000e+00
-7.260000e-01 0.000000e+00 0.000000e+00
-1.452000e+00 1.282500e-01 0.000000e+00
-1.270500e+00 1.282500e-01 0.000000e+00
-1.089000e+00 1.282500e-01 0.000000e+00
-9.075000e-01 1.282500e-01 0.000000e+00
-7.260000e-01 1.282500e-01 0.000000e+00
-1.452000e+00 2.565000e-01 0.000000e+00
-1.270500e+00 2.565000e-01 0.000000e+00
-1.089000e+00 2.565000e-01 0.000000e+00
-9.075000e-01 2.565000e-01 0.000000e+00
-7.260000e-01 2.565000e-01 0.000000e+00
-1.452000e+00 3.847500e-01 0.000000e+00
-1.270500e+00 3.847500e-01 0.000000e+00
-1.089000e+00 3.847500e-01 0.000000e+00
-9.075000e-01 3.847500e-01 0.000000e+00
-7.260000e-01 3.847500e-01 0.000000e+00
-1.452000e+00 5.130000e-01 0.000000e+00
-1.270500e+00 5.130000e-01 0.000000e+00
-1.089000e+00 5.130000e-01 0.000000e+00
-9.075000e-01 5.130000e-01 0.000000e+00
-7.260000e-01 5.130000e-01 0.000000e+00
-7.260000e-01 0.000000e+00 0.000000e+00
-5.445000e-01 0.000000e+00 0.000000e+00
-3.630000e-01 0.000000e+00 0.000000e+00
-1.815000e-01 0.000000e+00 0.000000e+00
0.000000e+00 0.000000e+00 0.000000e+00
-7.260000e-01 1.282500e-01 0.000000e+00
-5.445000e-01 1.282500e-01 0.000000e+00
-3.630000e-01 1.282500e-01 0.000000e+00
-1.815000e-01 1.282500e-01 0.000000e+00
0.000000e+00 1.282500e-01 0.000000e+00
-7.260000e-01 2.565000e-01 0.000000e+00
-5.445000e-01 2.565000e-01 0.000000e+00
-3.630000e-01 2.565000e-01 0.000000e+00
-1.815000e-01 2.565000e-01 0.000000e+00
0.000000e+00 2.565000e-01 0.000000e+00
-7.260000e-01 3.847500e-01 0.000000e+00
-5.445000e-01 3.847500e-01 0.000000e+00
-3.630000e-01 3.847500e-01 0.000000e+00
-1.815000e-01 3.847500e-01 0.000000e+00
0.000000e+00 3.847500e-01 0.000000e+00
-7.260000e-01 5.130000e-01 0.000000e+00
-5.445000e-01 5.130000e-01 0.000000e+00
-3.630000e-01 5.130000e-01 0.000000e+00
-1.815000e-01 5.130000e-01 0.000000e+00
0.000000e+00 5.130000e-01 0.000000e+00
0.000000e+00 0.000000e+00 0.000000e+00
1.815000e-01 0.000000e+00 0.000000e+00
3.630000e-01 0.000000e+00 0.000000e+00
5.445000e-01 0.000000e+00 0.000000e+00
7.260000e-01 0.000000e+00 0.000000e+00
0.000000e+00 1.282500e-01 0.000000e+00
1.815000e-01 1.282500e-01 0.000000e+00
3.630000e-01 1.282500e-01 0.000000e+00
5.445000e-01 1.282500e-01 0.000000e+00
7.260000e-01 1.282500e-01 0.000000e+00
0.000000e+00 2.565000e-01 0.000000e+00
1.815000e-01 2.565000e-01 0.000000e+00
3.630000e-01 2.565000e-01 0.000000e+00
5.445000e-01 2.565000e-01 0.000000e+00
7.260000e-01 2.565000e-01 0.000000e+00
0.000000e+00 3.847500e-01 0.000000e+00
1.815000e-01 3.847500e-01 0.000000e+00
3.630000e-01 3.847500e-01 0.000000e+00
5.445000e-01 3.847500e-01 0.000000e+00
7.260000e-01 3.847500e-01 0.000000e+00
0.000000e+00 5.130000e-01 0.000000e+00
1.815000e-01 5.130000e-01 0.000000e+00
3.630000e-01 5.130000e-01 0.000000e+00
5.445000e-01 5.130000e-01 0.000000e+00
7.260000e-01 5.130000e-01 0.000000e+00
7.260000e-01 0.000000e+00 0.000000e+00
9.075000e-01 0.000000e+00 0.000000e+00
1.089000e+00 0.000000e+00 0.000000e+00
1.270500e+00 0.000000e+00 0.000000e+00
1.452000e+00 0.000000e+00 0.000000e+00
7.260000e-01 1.282500e-01 0.000000e+00
9.075000e-01 1.282500e-01 0.000000e+00
1.089000e+00 1.282500e-01 0.000000e+00
1.270500e+00 1.282500e-01 0.000000e+00
1.452000e+00 1.282500e-01 0.000000e+00
7.260000e-01 2.565000e-01 0.000000e+00
9.075000e-01 2.565000e-01 0.000000e+00
1.089000e+00 2.565000e-01 0.000000e+00
1.270500e+00 2.565000e-01 0.000000e+00
1.452000e+00 2.565000e-01 0.000000e+00
7.260000e-01 3.847500e-01 0.000000e+00
9.075000e-01 3.847500e-01 0.000000e+00
1.089000e+00 3.847500e-01 0.000000e+00
1.270500e+00 3.847500e-01 0.000000e+00
1.452000e+00 3.847500e-01 0.000000e+00
7.260000e-01 5.130000e-01 0.000000e+00
9.075000e-01 5.130000e-01 0.000000e+00
1.089000e+00 5.130000e-01 0.000000e+00
1.270500e+00 5.130000e-01 0.000000e+00
1.452000e+00 5.130000e-01 0.000000e+00
1.452000e+00 0.000000e+00 0.000000e+00
1.633500e+00 0.000000e+00 0.000000e+00
1.815000e+00 0.000000e+00 0.000000e+00
1.996500e+00 0.000000e+00 0.000000e+00
2.178000e+00 0.000000e+00 0.000000e+00
1.452000e+00 1.282500e-01 0.000000e+00
1.633500e+00 1.282500e-01 0.000000e+00
1.815000e+00 1.282500e-01 0.000000e+00
1.996500e+00 1.282500e-01 0.000000e+00
2.178000e+00 1.282500e-01 0.000000e+00
1.452000e+00 2.565000e-01 0.000000e+00
1.633500e+00 2.565000e-01 0.000000e+00
1.815000e+00 2.565000e-01 0.000000e+00
1.996500e+00 2.565000e-01 0.000000e+00
2.178000e+00 2.565000e-01 0.000000e+00
1.452000e+00 3.847500e-01 0.000000e+00
1.633500e+00 3.847500e-01 0.000000e+00
1.815000e+00 3.847500e-01 0.000000e+00
1.996500e+00 3.847500e-01 0.000000e+00
2.178000e+00 3.847500e-01 0.000000e+00
1.452000e+00 5.130000e-01 0.000000e+00
1.633500e+00 5.130000e-01 0.000000e+00
1.815000e+00 5.130000e-01 0.000000e+00
1.996500e+00 5.130000e-01 0.000000e+00
2.178000e+00 5.130000e-01 0.000000e+00
2.178000e+00 0.000000e+00 0.000000e+00
2.359500e+00 0.000000e+00 0.000000e+00
2.541000e+00 0.000000e+00 0.000000e+00
2.722500e+00 0.000000e+00 0.000000e+00
2.904000e+00 0.000000e+00 0.000000e+00
2.178000e+00 1.282500e-01 0.000000e+00
2.359500e+00 1.282500e-01 0.000000e+00
2.541000e+00 1.282500e-01 0.000000e+00
2.722500e+00 1.282500e-01 0.000000e+00
2.904000e+00 1.282500e-01 0.000000e+00
2.178000e+00 2.565000e-01 0.000000e+00
2.359500e+00 2.565000e-01 0.000000e+00
2.541000e+00 2.565000e-01 0.000000e+00
2.722500e+00 2.565000e-01 0.000000e+00
2.904000e+00 2.565000e-01 0.000000e+00
2.178000e+00 3.847500e-01 0.000000e+00
2.359500e+00 3.847500e-01 0.000000e+00
2.541000e+00 3.847500e-01 0.000000e+00
2.722500e+00 3.847500e-01 0.000000e+00
2.904000e+00 3.847500e-01 0.000000e+00
2.178000e+00 5.130000e-01 0.000000e+00
2.359500e+00 5.130000e-01 0.000000e+00
2.541000e+00 5.130000e-01 0.000000e+00
2.722500e+00 5.130000e-01 0.000000e+00
2.904000e+00 5.130000e-01 0.000000e+00
2.904000e+00 0.000000e+00 0.000000e+00
3.085500e+00 0.000000e+00 0.000000e+00
3.267000e+00 0.000000e+00 0.000000e+00
3.448500e+00 0.000000e+00 0.000000e+00
3.630000e+00 0.000000e+00 0.000000e+00
2.904000e+00 1.282500e-01 0.000000e+00
3.085500e+00 1.282500e-01 0.000000e+00
3.267000e+00 1.282500e-01 0.000000e+00
3.448500e+00 1.282500e-01 0.000000e+00
3.630000e+00 1.282500e-01 0.000000e+00
2.904000e+00 2.565000e-01 0.000000e+00
3.085500e+00 2.565000e-01 0.000000e+00
3.267000e+00 2.565000e-01 0.000000e+00
3.448500e+00 2.565000e-01 0.000000e+00
3.630000e+00 2.565000e-01 0.000000e+00
2.904000e+00 3.847500e-01 0.000000e+00
3.085500e+00 3.847500e-01 0.000000e+00
3.267000e+00 3.847500e-01 0.000000e+00
3.448500e+00 3.847500e-01 0.000000e+00
3.630000e+00 3.847500e-01 0.000000e+00
2.904000e+00 5.130000e-01 0.000000e+00
[...]
<PointData>
<DataArray type="Float32" Name="V1" format="ascii">
2.018460e-02
1.940460e-02
1.843410e-02
1.727310e-02
1.592150e-02
2.021030e-02
1.943960e-02
1.848500e-02
1.734640e-02
1.602390e-02
2.028400e-02
1.952460e-02
1.859600e-02
1.749820e-02
1.623110e-02
2.040560e-02
1.965970e-02
1.876730e-02
1.772850e-02
1.654330e-02
2.057510e-02
1.984470e-02
1.899880e-02
1.803740e-02
1.696040e-02
1.592150e-02
1.499560e-02
1.316530e-02
1.043050e-02
6.791380e-03
1.602390e-02
1.503060e-02
1.322340e-02
1.060230e-02
7.167180e-03
1.623110e-02
1.515700e-02
1.340040e-02
1.096110e-02
7.839320e-03
1.654330e-02
1.537490e-02
1.369620e-02
1.150720e-02
8.807790e-03
1.696040e-02
1.568420e-02
1.411090e-02
1.224030e-02
1.007260e-02
6.791380e-03
1.332310e-03
-1.724560e-03
-2.379220e-03
-6.316930e-04
7.167180e-03
1.756940e-03
-1.246310e-03
-1.842580e-03
-3.185910e-05
7.839320e-03
2.489190e-03
-4.094870e-04
-8.567140e-04
1.147510e-03
8.807790e-03
3.529060e-03
7.859210e-04
5.783710e-04
2.906410e-03
1.007260e-02
4.876560e-03
2.339910e-03
2.462680e-03
5.244850e-03
-6.316930e-04
-1.661460e-02
-3.100220e-02
-4.379440e-02
-5.499140e-02
-3.185910e-05
-1.512620e-02
-2.886690e-02
-4.125400e-02
-5.228750e-02
1.147510e-03
-1.306870e-02
-2.620110e-02
-3.824960e-02
-4.921430e-02
2.906410e-03
-1.044220e-02
-2.300480e-02
-3.478120e-02
-4.577170e-02
5.244850e-03
-7.246700e-03
-1.927800e-02
-3.084890e-02
-4.195960e-02
-5.499140e-02
-6.175820e-02
-6.830380e-02
-7.462800e-02
-8.073090e-02
-5.228750e-02
-6.115220e-02
-6.998680e-02
-7.879130e-02
-8.756590e-02
-4.921430e-02
-5.960160e-02
-7.025530e-02
-8.117540e-02
-9.236180e-02
-4.577170e-02
-5.710660e-02
-6.910940e-02
-8.178010e-02
-9.511870e-02
-4.195960e-02
-5.366710e-02
-6.654910e-02
-8.060560e-02
-9.583670e-02
-8.073090e-02
-7.238740e-02
-6.278190e-02
-5.191450e-02
-3.978510e-02
-8.756590e-02
-7.841820e-02
-6.741540e-02
-5.455750e-02
-3.984450e-02
-9.236180e-02
-8.238410e-02
-7.019200e-02
-5.578530e-02
-3.916420e-02
-9.511870e-02
-8.428520e-02
-7.111160e-02
-5.559790e-02
-3.774420e-02
-9.583670e-02
-8.412150e-02
-7.017430e-02
-5.399530e-02
-3.558440e-02
-3.978510e-02
-3.256210e-02
-2.546170e-02
-1.848400e-02
-1.162890e-02
-3.984450e-02
-3.174830e-02
-2.432340e-02
-1.756970e-02
-1.148720e-02
-3.916420e-02
-3.012390e-02
-2.242250e-02
-1.605980e-02
-1.103590e-02
-3.774420e-02
-2.768900e-02
-1.975900e-02
-1.395440e-02
-1.027510e-02
-3.558440e-02
-2.444330e-02
-1.633300e-02
-1.125350e-02
-9.204710e-03
-1.162890e-02
-3.209570e-03
3.017570e-03
7.052550e-03
8.895350e-03
-1.148720e-02
-3.154660e-03
3.043670e-03
7.107810e-03
9.037780e-03
-1.103590e-02
-2.685500e-03
3.524490e-03
7.594050e-03
9.523180e-03
-1.027510e-02
-1.802080e-03
4.460040e-03
8.511250e-03
1.035160e-02
-9.204710e-03
-5.043930e-04
5.850320e-03
9.859430e-03
1.152290e-02
8.895350e-03
1.135650e-02
1.352750e-02
1.540830e-02
1.699900e-02
9.037780e-03
1.145210e-02
1.358310e-02
1.543070e-02
1.699490e-02
9.523180e-03
1.178050e-02
1.379000e-02
1.555170e-02
1.706560e-02
1.035160e-02
1.234160e-02
1.414830e-02
1.577140e-02
1.721120e-02
1.152290e-02
1.313560e-02
1.465790e-02
1.608980e-02
1.743150e-02
1.699900e-02
1.836560e-02
1.962250e-02
2.076980e-02
2.180750e-02
1.699490e-02
1.837850e-02
1.964150e-02
2.078380e-02
2.180540e-02
1.706560e-02
1.846660e-02
1.973070e-02
2.085800e-02
2.184850e-02
1.721120e-02
1.862980e-02
1.989030e-02
2.099250e-02
2.193660e-02
1.743150e-02
1.886820e-02
2.012010e-02
2.118730e-02
2.206990e-02
2.057510e-02
1.984470e-02
1.899880e-02
1.803740e-02
1.696040e-02
2.078850e-02
2.007720e-02
1.929440e-02
1.844010e-02
1.751430e-02
2.103660e-02
2.034090e-02
1.962690e-02
1.889470e-02
1.814420e-02
2.131930e-02
2.063590e-02
1.999650e-02
1.940120e-02
1.884980e-02
2.163650e-02
2.096210e-02
2.040310e-02
1.995950e-02
1.963130e-02
1.696040e-02
1.568420e-02
1.411090e-02
1.224030e-02
1.007260e-02
1.751430e-02
1.617190e-02
1.474560e-02
1.323560e-02
1.164190e-02
1.814420e-02
1.672860e-02
1.545950e-02
1.433670e-02
1.336020e-02
1.884980e-02
1.735450e-02
1.625230e-02
1.554340e-02
1.522760e-02
1.963130e-02
1.804950e-02
1.712430e-02
1.685580e-02
1.724390e-02
1.007260e-02
4.876560e-03
2.339910e-03
2.462680e-03
5.244850e-03
1.164190e-02
6.445780e-03
4.218940e-03
4.961420e-03
8.673200e-03
1.336020e-02
8.110570e-03
6.211840e-03
7.664080e-03
1.246730e-02
1.522760e-02
9.870920e-03
8.318610e-03
1.057070e-02
1.662710e-02
1.724390e-02
1.172680e-02
1.053920e-02
1.368110e-02
2.115260e-02
5.244850e-03
-7.246700e-03
-1.927800e-02
-3.084890e-02
-4.195960e-02
8.673200e-03
-3.195990e-03
-1.377690e-02
-2.306960e-02
-3.107410e-02
1.246730e-02
1.457040e-03
-7.457150e-03
-1.427530e-02
-1.899740e-02
1.662710e-02
6.712390e-03
-3.186220e-04
-4.465990e-03
-5.729710e-03
2.115260e-02
1.257010e-02
7.638670e-03
6.358340e-03
8.729080e-03
-4.195960e-02
-5.366710e-02
-6.654910e-02
-8.060560e-02
-9.583670e-02
-3.107410e-02
-4.240830e-02
-5.608910e-02
-7.211650e-02
-9.049050e-02
-1.899740e-02
-2.838710e-02
-4.042210e-02
-5.510240e-02
-7.242810e-02
-5.729710e-03
-1.160350e-02
-1.954800e-02
-2.956330e-02
-4.164950e-02
8.729080e-03
7.942550e-03
6.533090e-03
4.500730e-03
1.845440e-03
-9.583670e-02
-8.412150e-02
-7.017430e-02
-5.399530e-02
-3.558440e-02
-9.049050e-02
-7.597330e-02
-6.108080e-02
-4.581320e-02
-3.017040e-02
-7.242810e-02
-5.847410e-02
-4.528780e-02
-3.286930e-02
-2.121850e-02
-4.164950e-02
-3.162390e-02
-2.279530e-02
-1.516360e-02
-8.728790e-03
1.845440e-03
4.577260e-03
6.396760e-03
7.303940e-03
7.298810e-03
-3.558440e-02
-2.444330e-02
-1.633300e-02
-1.125350e-02
-9.204710e-03
-3.017040e-02
-1.979890e-02
-1.276700e-02
-9.074770e-03
-8.722160e-03
-2.121850e-02
-1.250290e-02
-7.221440e-03
-5.374270e-03
-6.961350e-03
-8.728790e-03
-2.555250e-03
3.036760e-04
-1.520040e-04
-3.922290e-03
7.298810e-03
1.004390e-02
9.808340e-03
6.592040e-03
3.950210e-04
-9.204710e-03
-5.043930e-04
5.850320e-03
9.859430e-03
1.152290e-02
-8.722160e-03
1.126090e-03
8.036640e-03
1.200950e-02
1.304470e-02
-6.961350e-03
3.288910e-03
1.030970e-02
1.410090e-02
1.466260e-02
-3.922290e-03
5.984060e-03
1.266940e-02
1.613360e-02
1.637680e-02
3.950210e-04
9.211560e-03
1.511580e-02
1.810760e-02
1.818720e-02
1.152290e-02
1.313560e-02
1.465790e-02
1.608980e-02
1.743150e-02
1.304470e-02
1.401170e-02
1.509360e-02
1.629050e-02
1.760230e-02
1.466260e-02
1.503420e-02
1.569070e-02
1.663200e-02
1.785830e-02
1.637680e-02
1.620320e-02
1.644910e-02
1.711450e-02
1.819940e-02
1.818720e-02
1.751850e-02
1.736870e-02
1.773780e-02
1.862570e-02
1.743150e-02
1.886820e-02
2.012010e-02
2.118730e-02
2.206990e-02
1.760230e-02
1.917860e-02
2.045870e-02
2.144280e-02
2.213070e-02
1.785830e-02
1.954590e-02
2.083640e-02
2.172980e-02
2.222610e-02
1.819940e-02
1.997010e-02
2.125310e-02
2.204840e-02
2.235610e-02
1.862570e-02
2.045120e-02
2.170880e-02
2.239860e-02
2.252060e-02
2.163650e-02
2.096210e-02
2.040310e-02
1.995950e-02
1.963130e-02
2.197900e-02
2.133900e-02
2.087140e-02
2.057620e-02
2.045350e-02
2.233590e-02
2.174830e-02
2.137010e-02
2.120120e-02
2.124170e-02
2.270730e-02
2.219020e-02
2.189930e-02
2.183460e-02
2.199600e-02
2.309330e-02
2.266460e-02
2.245890e-02
2.247620e-02
2.271640e-02
1.963130e-02
1.804950e-02
1.712430e-02
1.685580e-02
1.724390e-02
2.045350e-02
1.879230e-02
1.802380e-02
1.814800e-02
1.916480e-02
2.124170e-02
1.958260e-02
1.896350e-02
1.938420e-02
2.084480e-02
2.199600e-02
2.042060e-02
1.994350e-02
2.056450e-02
2.228380e-02
2.271640e-02
2.130620e-02
2.096370e-02
2.168890e-02
2.348190e-02
1.724390e-02
1.172680e-02
1.053920e-02
1.368110e-02
2.115260e-02
1.916480e-02
1.380780e-02
1.290890e-02
1.646810e-02
2.448550e-02
2.084480e-02
1.598890e-02
1.539460e-02
1.906200e-02
2.699100e-02
2.228380e-02
1.827010e-02
1.799640e-02
2.146270e-02
2.866910e-02
2.348190e-02
2.065150e-02
2.071440e-02
2.367040e-02
2.951960e-02
2.115260e-02
1.257010e-02
7.638670e-03
6.358340e-03
8.729080e-03
2.448550e-02
1.779760e-02
1.523620e-02
1.680140e-02
2.249320e-02
2.699100e-02
2.236880e-02
2.173760e-02
2.509730e-02
3.244790e-02
2.866910e-02
2.628390e-02
2.714290e-02
3.124600e-02
3.859320e-02
2.951960e-02
2.954280e-02
3.145200e-02
3.524740e-02
4.092900e-02
8.729080e-03
7.942550e-03
6.533090e-03
4.500730e-03
1.845440e-03
2.249320e-02
2.857710e-02
3.438690e-02
3.992270e-02
4.518460e-02
3.244790e-02
4.359230e-02
5.433020e-02
6.466150e-02
7.458640e-02
3.859320e-02
5.298830e-02
6.636290e-02
7.871720e-02
9.005100e-02
4.092900e-02
5.676500e-02
7.048520e-02
8.208960e-02
9.157830e-02
1.845440e-03
4.577260e-03
6.396760e-03
7.303940e-03
7.298810e-03
4.518460e-02
3.828670e-02
3.190380e-02
2.603590e-02
2.068310e-02
7.458640e-02
6.235250e-02
5.122820e-02
4.121360e-02
3.230860e-02
9.005100e-02
7.677470e-02
6.437000e-02
5.283680e-02
4.217520e-02
9.157830e-02
8.155340e-02
7.132920e-02
6.090570e-02
5.028290e-02
7.298810e-03
1.004390e-02
9.808340e-03
6.592040e-03
3.950210e-04
2.068310e-02
2.014310e-02
1.761510e-02
1.309930e-02
6.595580e-03
3.230860e-02
2.873770e-02
2.417990e-02
1.863520e-02
1.210380e-02
4.217520e-02
3.582770e-02
2.950250e-02
2.319990e-02
1.691960e-02
5.028290e-02
4.141310e-02
3.358320e-02
2.679320e-02
2.104300e-02
3.950210e-04
9.211560e-03
1.511580e-02
1.810760e-02
1.818720e-02
6.595580e-03
1.283030e-02
1.706190e-02
1.929060e-02
1.951620e-02
1.210380e-02
1.621100e-02
1.903010e-02
2.056110e-02
2.080400e-02
1.691960e-02
1.935390e-02
2.102040e-02
2.191930e-02
2.205050e-02
2.104300e-02
2.225880e-02
2.303280e-02
2.336510e-02
2.325570e-02
1.818720e-02
1.751850e-02
1.736870e-02
1.773780e-02
1.862570e-02
1.951620e-02
1.879890e-02
1.851350e-02
1.866020e-02
1.923890e-02
2.080400e-02
2.004250e-02
1.963730e-02
1.958830e-02
1.989560e-02
2.205050e-02
2.124940e-02
2.073990e-02
2.052210e-02
2.059580e-02
2.325570e-02
2.241960e-02
2.182160e-02
2.146150e-02
2.133940e-02
1.862570e-02
2.045120e-02
2.170880e-02
2.239860e-02
2.252060e-02
1.923890e-02
2.091500e-02
2.206200e-02
2.267990e-02
2.276870e-02
1.989560e-02
2.140710e-02
2.243240e-02
2.297140e-02
2.302420e-02
2.059580e-02
2.192760e-02
2.282000e-02
2.327320e-02
2.328700e-02
2.133940e-02
2.247630e-02
2.322490e-02
2.358510e-02
2.355700e-02
2.309330e-02
2.266460e-02
2.245890e-02
2.247620e-02
2.271640e-02
2.348320e-02
2.313460e-02
2.299370e-02
2.306040e-02
2.333480e-02
2.386930e-02
2.359350e-02
2.351140e-02
2.362280e-02
2.392780e-02
2.425160e-02
2.404130e-02
2.401190e-02
2.416330e-02
2.449550e-02
2.463000e-02
2.447800e-02
2.449530e-02
2.468190e-02
2.503790e-02
2.271640e-02
2.130620e-02
2.096370e-02
2.168890e-02
2.348190e-02
2.333480e-02
2.222630e-02
2.202460e-02
2.272950e-02
2.434110e-02
2.392780e-02
2.311260e-02
2.304170e-02
2.371510e-02
2.513290e-02
2.449550e-02
2.396500e-02
2.401510e-02
2.464590e-02
2.585730e-02
2.503790e-02
2.478350e-02
2.494480e-02
2.552170e-02
2.651430e-02
2.348190e-02
2.065150e-02
2.071440e-02
2.367040e-02
2.951960e-02
2.434110e-02
2.264780e-02
2.305140e-02
2.555200e-02
3.014950e-02
2.513290e-02
2.441310e-02
2.510330e-02
2.720370e-02
3.071420e-02
2.585730e-02
2.594740e-02
2.687010e-02
2.862550e-02
3.121360e-02
2.651430e-02
2.725070e-02
2.835180e-02
2.981750e-02
3.164780e-02
2.951960e-02
2.954280e-02
3.145200e-02
3.524740e-02
4.092900e-02
3.014950e-02
3.188720e-02
3.457430e-02
3.821090e-02
4.279700e-02
3.071420e-02
3.359790e-02
3.677390e-02
4.024200e-02
4.400230e-02
3.121360e-02
3.467510e-02
3.805080e-02
4.134080e-02
4.454510e-02
3.164780e-02
3.511860e-02
3.840510e-02
4.150730e-02
4.442520e-02
4.092900e-02
5.676500e-02
7.048520e-02
8.208960e-02
9.157830e-02
4.279700e-02
5.632880e-02
6.831350e-02
7.875120e-02
8.764190e-02
4.400230e-02
5.511090e-02
6.503180e-02
7.376500e-02
8.131060e-02
4.454510e-02
5.311140e-02
6.064000e-02
6.713090e-02
7.258420e-02
4.442520e-02
5.033020e-02
5.513820e-02
5.884900e-02
6.146280e-02
9.157830e-02
8.155340e-02
7.132920e-02
6.090570e-02
5.028290e-02
8.764190e-02
7.821750e-02
6.870260e-02
5.909730e-02
4.940150e-02
8.131060e-02
7.319320e-02
6.512790e-02
5.711470e-02
4.915360e-02
7.258420e-02
6.648060e-02
6.060520e-02
5.495810e-02
4.953910e-02
6.146280e-02
5.807970e-02
5.513450e-02
5.262730e-02
5.055800e-02
5.028290e-02
4.141310e-02
3.358320e-02
2.679320e-02
2.104300e-02
4.940150e-02
4.198110e-02
3.527390e-02
2.928000e-02
2.399930e-02
4.915360e-02
4.274160e-02
3.682320e-02
3.139830e-02
2.646700e-02
4.953910e-02
4.369470e-02
3.823110e-02
3.314820e-02
2.844610e-02
5.055800e-02
4.484040e-02
3.949770e-02
3.452970e-02
2.993660e-02
2.104300e-02
2.225880e-02
2.303280e-02
2.336510e-02
2.325570e-02
2.399930e-02
2.452920e-02
2.479190e-02
2.478770e-02
2.451640e-02
2.646700e-02
2.646810e-02
2.632710e-02
2.604380e-02
2.561830e-02
2.844610e-02
2.807570e-02
2.763820e-02
2.713350e-02
2.656160e-02
2.993660e-02
2.935190e-02
2.872520e-02
2.805670e-02
2.734610e-02
2.325570e-02
2.241960e-02
2.182160e-02
2.146150e-02
2.133940e-02
2.451640e-02
2.351880e-02
2.277250e-02
2.227760e-02
2.203410e-02
2.561830e-02
2.450030e-02
2.364460e-02
2.305100e-02
2.271970e-02
2.656160e-02
2.536430e-02
2.443760e-02
2.378160e-02
2.339620e-02
2.734610e-02
2.611060e-02
2.515170e-02
2.446940e-02
2.406360e-02
2.133940e-02
2.247630e-02
2.322490e-02
2.358510e-02
2.355700e-02
2.203410e-02
2.302100e-02
2.364720e-02
2.391260e-02
2.381720e-02
2.271970e-02
2.355380e-02
2.405700e-02
2.422960e-02
2.407130e-02
2.339620e-02
2.407440e-02
2.445430e-02
2.453590e-02
2.431930e-02
2.406360e-02
2.458300e-02
2.483910e-02
2.483180e-02
2.456110e-02
2.463000e-02
2.447800e-02
2.449530e-02
2.468190e-02
2.503790e-02
2.499690e-02
2.489850e-02
2.495650e-02
2.517090e-02
2.554170e-02
2.534870e-02
2.530210e-02
2.539770e-02
2.563570e-02
2.601600e-02
2.568540e-02
2.568860e-02
2.581890e-02
2.607630e-02
2.646080e-02
2.600690e-02
2.605820e-02
2.622010e-02
2.649270e-02
2.687600e-02
2.503790e-02
2.478350e-02
2.494480e-02
2.552170e-02
2.651430e-02
2.554170e-02
2.547640e-02
2.572580e-02
2.628970e-02
2.716830e-02
2.601600e-02
2.610790e-02
2.643230e-02
2.698920e-02
2.777850e-02
2.646080e-02
2.667800e-02
2.706440e-02
2.762000e-02
2.834470e-02
2.687600e-02
2.718670e-02
2.762210e-02
2.818220e-02
2.886710e-02
2.651430e-02
2.725070e-02
2.835180e-02
2.981750e-02
3.164780e-02
2.716830e-02
2.821120e-02
2.941700e-02
3.078590e-02
3.231790e-02
2.777850e-02
2.899650e-02
3.025080e-02
3.154120e-02
3.286790e-02
2.834470e-02
2.960690e-02
3.085310e-02
3.208330e-02
3.329770e-02
2.886710e-02
3.004220e-02
3.122390e-02
3.241230e-02
3.360730e-02
3.164780e-02
3.511860e-02
3.840510e-02
4.150730e-02
4.442520e-02
3.231790e-02
3.551870e-02
3.853090e-02
4.135460e-02
4.398960e-02
3.286790e-02
3.578140e-02
3.851150e-02
4.105820e-02
4.342150e-02
3.329770e-02
3.590660e-02
3.834680e-02
4.061830e-02
4.272100e-02
3.360730e-02
3.589440e-02
3.803680e-02
4.003470e-02
4.188800e-02
4.442520e-02
5.033020e-02
5.513820e-02
5.884900e-02
6.146280e-02
4.398960e-02
4.862290e-02
5.243970e-02
5.544010e-02
5.762400e-02
4.342150e-02
4.702640e-02
5.002630e-02
5.242130e-02
5.421120e-02
4.272100e-02
4.554080e-02
4.789800e-02
4.979260e-02
5.122450e-02
4.188800e-02
4.416620e-02
4.605480e-02
4.755400e-02
4.866380e-02
6.146280e-02
5.807970e-02
5.513450e-02
5.262730e-02
5.055800e-02
5.762400e-02
5.537390e-02
5.305740e-02
5.067430e-02
4.822480e-02
5.421120e-02
5.268290e-02
5.083730e-02
4.867430e-02
4.619390e-02
5.122450e-02
5.000670e-02
4.847430e-02
4.662720e-02
4.446540e-02
4.866380e-02
4.734530e-02
4.596830e-02
4.453300e-02
4.303920e-02
5.055800e-02
4.484040e-02
3.949770e-02
3.452970e-02
2.993660e-02
4.822480e-02
4.322270e-02
3.872860e-02
3.474230e-02
3.126400e-02
4.619390e-02
4.201950e-02
3.833460e-02
3.513920e-02
3.243330e-02
4.446540e-02
4.123080e-02
3.831580e-02
3.572040e-02
3.344450e-02
4.303920e-02
4.085660e-02
3.867210e-02
3.648580e-02
3.429750e-02
2.993660e-02
2.935190e-02
2.872520e-02
2.805670e-02
2.734610e-02
3.126400e-02
3.044230e-02
2.959830e-02
2.873200e-02
2.784340e-02
3.243330e-02
3.134150e-02
3.028300e-02
2.925810e-02
2.826670e-02
3.344450e-02
3.204920e-02
3.077930e-02
2.963490e-02
2.861580e-02
3.429750e-02
3.256570e-02
3.108730e-02
2.986230e-02
2.889080e-02
2.734610e-02
2.611060e-02
2.515170e-02
2.446940e-02
2.406360e-02
2.784340e-02
2.676300e-02
2.589820e-02
2.524890e-02
2.481540e-02
2.826670e-02
2.733560e-02
2.656300e-02
2.594880e-02
2.549310e-02
2.861580e-02
2.782840e-02
2.714610e-02
2.656900e-02
2.609690e-02
2.889080e-02
2.824140e-02
2.764760e-02
2.710940e-02
2.662660e-02
2.406360e-02
2.458300e-02
2.483910e-02
2.483180e-02
2.456110e-02
2.481540e-02
2.505930e-02
2.514810e-02
2.508160e-02
2.486000e-02
2.549310e-02
2.549240e-02
2.543500e-02
2.532070e-02
2.514950e-02
2.609690e-02
2.588230e-02
2.569970e-02
2.554880e-02
2.542980e-02
2.662660e-02
2.622910e-02
2.594220e-02
2.576620e-02
2.570090e-02
2.600690e-02
2.605820e-02
2.622010e-02
2.649270e-02
2.687600e-02
2.630990e-02
2.639810e-02
2.658460e-02
2.686950e-02
2.725270e-02
2.659390e-02
2.671490e-02
2.692230e-02
2.721630e-02
2.759680e-02
2.685910e-02
2.700860e-02
2.723330e-02
2.753320e-02
2.790810e-02
2.710540e-02
2.727940e-02
2.751760e-02
2.782000e-02
2.818680e-02
2.687600e-02
2.718670e-02
2.762210e-02
2.818220e-02
2.886710e-02
2.725270e-02
2.761370e-02
2.807760e-02
2.864420e-02
2.931370e-02
2.759680e-02
2.799410e-02
2.847520e-02
2.904010e-02
2.968880e-02
2.790810e-02
2.832780e-02
2.881500e-02
2.936980e-02
2.999220e-02
2.818680e-02
2.861470e-02
2.909690e-02
2.963340e-02
3.022410e-02
2.886710e-02
3.004220e-02
3.122390e-02
3.241230e-02
3.360730e-02
2.931370e-02
3.042620e-02
3.154030e-02
3.265600e-02
3.377330e-02
2.968880e-02
3.074370e-02
3.179200e-02
3.283370e-02
3.386870e-02
2.999220e-02
3.099470e-02
3.197910e-02
3.294540e-02
3.389350e-02
3.022410e-02
3.117930e-02
3.210160e-02
3.299110e-02
3.384770e-02
3.360730e-02
3.589440e-02
3.803680e-02
4.003470e-02
4.188800e-02
3.377330e-02
3.582280e-02
3.772430e-02
3.947780e-02
4.108330e-02
3.386870e-02
3.568610e-02
3.735850e-02
3.888590e-02
4.026840e-02
3.389350e-02
3.548420e-02
3.693940e-02
3.825910e-02
3.944330e-02
3.384770e-02
3.521710e-02
3.646700e-02
3.759730e-02
3.860800e-02
4.188800e-02
4.416620e-02
4.605480e-02
4.755400e-02
4.866380e-02
4.108330e-02
4.300070e-02
4.455970e-02
4.576020e-02
4.660220e-02
4.026840e-02
4.185250e-02
4.312190e-02
4.407640e-02
4.471620e-02
3.944330e-02
4.072150e-02
4.174130e-02
4.250270e-02
4.300560e-02
3.860800e-02
3.960770e-02
4.041800e-02
4.103890e-02
4.147040e-02
4.866380e-02
4.734530e-02
4.596830e-02
4.453300e-02
4.303920e-02
4.660220e-02
4.541810e-02
4.418170e-02
4.289310e-02
4.155220e-02
4.471620e-02
4.372670e-02
4.267700e-02
4.156680e-02
4.039640e-02
4.300560e-02
4.227120e-02
4.145410e-02
4.055430e-02
3.957170e-02
4.147040e-02
4.105140e-02
4.051300e-02
3.985530e-02
3.907830e-02
4.303920e-02
4.085660e-02
3.867210e-02
3.648580e-02
3.429750e-02
4.155220e-02
3.966800e-02
3.782320e-02
3.601780e-02
3.425180e-02
4.039640e-02
3.875660e-02
3.717750e-02
3.565910e-02
3.420140e-02
3.957170e-02
3.812260e-02
3.673530e-02
3.540990e-02
3.414640e-02
3.907830e-02
3.776570e-02
3.649630e-02
3.527000e-02
3.408670e-02
3.429750e-02
3.256570e-02
3.108730e-02
2.986230e-02
2.889080e-02
3.425180e-02
3.274780e-02
3.142200e-02
3.027440e-02
2.930500e-02
3.420140e-02
3.287840e-02
3.168020e-02
3.060710e-02
2.965880e-02
3.414640e-02
3.295730e-02
3.186190e-02
3.086020e-02
2.995220e-02
3.408670e-02
3.298460e-02
3.196690e-02
3.103380e-02
3.018510e-02
2.889080e-02
2.824140e-02
2.764760e-02
2.710940e-02
2.662660e-02
2.930500e-02
2.864110e-02
2.803570e-02
2.748880e-02
2.700040e-02
2.965880e-02
2.898290e-02
2.836810e-02
2.781420e-02
2.732130e-02
2.995220e-02
2.926700e-02
2.864480e-02
2.808560e-02
2.758940e-02
3.018510e-02
2.949330e-02
2.886590e-02
2.830300e-02
2.780450e-02
2.662660e-02
2.622910e-02
2.594220e-02
2.576620e-02
2.570090e-02
2.700040e-02
2.658820e-02
2.627150e-02
2.605030e-02
2.592460e-02
2.732130e-02
2.690760e-02
2.657170e-02
2.631340e-02
2.613280e-02
2.758940e-02
2.718730e-02
2.684260e-02
2.655530e-02
2.632530e-02
2.780450e-02
2.742730e-02
2.708450e-02
2.677620e-02
2.650230e-02
2.710540e-02
2.727940e-02
2.751760e-02
2.782000e-02
2.818680e-02
2.733260e-02
2.752090e-02
2.776640e-02
2.806890e-02
2.842860e-02
2.754220e-02
2.774190e-02
2.799200e-02
2.829250e-02
2.864330e-02
2.773410e-02
2.794230e-02
2.819450e-02