<?xml version="1.0"?>
<VTKFile type="UnstructuredGrid" version="0.1" byte_order="LittleEndian" compressor="vtkZLibDataCompressor">
<UnstructuredGrid>
<Piece NumberOfPoints="2500" NumberOfCells="1600">
<Points>
<DataArray type="Float32" NumberOfComponents="3" format="ascii">
-3.630000e+00 0.000000e+00 0.000000e+00
-3.448500e+00 0.000000e+00 0.000000e+00
-3.267000e+00 0.000000e+00 0.000000e+00
-3.085500e+00 0.000000e+00 0.000000e+00
-2.904000e+00 0.000000e+00 0.000000e+00
-3.630000e+00 1.282500e-01 0.000000e+00
-3.448500e+00 1.282500e-01 0.000000e+00
-3.267000e+00 1.282500e-01 0.000000e+00
-3.085500e+00 1.282500e-01 0.000000e+00
-2.904000e+00 1.282500e-01 0.000000e+00
-3.630000e+00 2.565000e-01 0.000000e+00
-3.448500e+00 2.565000e-01 0.000000e+00
-3.267000e+00 2.565000e-01 0.000000e+00
-3.085500e+00 2.565000e-01 0.000000e+00
-2.904000e+00 2.565000e-01 0.000000e+00
-3.630000e+00 3.847500e-01 0.000000e+00
-3.448500e+00 3.847500e-01 0.000000e+00
-3.267000e+00 3.847500e-01 0.000000e+00
-3.085500e+00 3.847500e-01 0.000000e+00
-2.904000e+00 3.847500e-01 0.000000e+00
-3.630000e+00 5.130000e-01 0.000000e+00
-3.448500e+00 5.130000e-01 0.000000e+00
-3.267000e+00 5.130000e-01 0.000000e+00
-3.085500e+00 5.130000e-01 0.000000e+00
-2.904000e+00 5.130000e-01 0.000000e+00
-2.904000e+00 0.000000e+00 0.000000e+00
-2.722500e+00 0.000000e+00 0.000000e+00
-2.541000e+00 0.000000e+00 0.000000e+00
-2.359500e+00 0.000000e+00 0.000000e+00
-2.178000e+00 0.000000e+00 0.000000e+00
-2.904000e+00 1.282500e-01 0.000000e+00
-2.722500e+00 1.282500e-01 0.000000e+00
-2.541000e+00 1.282500e-01 0.000000e+00
-2.359500e+00 1.282500e-01 0.000000e+00
-2.178000e+00 1.282500e-01 0.000000e+00
-2.904000e+00 2.565000e-01 0.000000e+00
-2.722500e+00 2.565000e-01 0.000000e+00
-2.541000e+00 2.565000e-01 0.000000e+00
-2.359500e+00 2.565000e-01 0.000000e+00
-2.178000e+00 2.565000e-01 0.000000e+00
-2.904000e+00 3.847500e-01 0.000000e+00
-2.722500e+00 3.847500e-01 0.000000e+00
-2.541000e+00 3.847500e-01 0.000000e+00
-2.359500e+00 3.847500e-01 0.000000e+00
-2.178000e+00 3.847500e-01 0.000000e+00
-2.904000e+00 5.130000e-01 0.000000e+00
-2.722500e+00 5.130000e-01 0.000000e+00
-2.541000e+00 5.130000e-01 0.000000e+00
-2.359500e+00 5.130000e-01 0.000000e+00
-2.178000e+00 5.130000e-01 0.000000e+00
-2.178000e+00 0.000000e+00 0.000000e+00
-1.996500e+00 0.000000e+00 0.000000e+00
-1.815000e+00 0.000000e+00 0.000000e+00
-1.633500e+00 0.000000e+00 0.000000e+00
-1.452000e+00 0.000000e+00 0.000000e+00
-2.178000e+00 1.282500e-01 0.000000e+00
-1.996500e+00 1.282500e-01 0.000000e+00
-1.815000e+00 1.282500e-01 0.000000e+00
-1.633500e+00 1.282500e-01 0.000000e+00
-1.452000e+00 1.282500e-01 0.000000e+00
-2.178000e+00 2.565000e-01 0.000000e+00
-1.996500e+00 2.565000e-01 0.000000e+00
-1.815000e+00 2.565000e-01 0.000000e+00
-1.633500e+00 2.565000e-01 0.000000e+00
-1.452000e+00 2.565000e-01 0.000000e+00
-2.178000e+00 3.847500e-01 0.000000e+00
-1.996500e+00 3.847500e-01 0.000000e+00
-1.815000e+00 3.847500e-01 0.000000e+00
-1.633500e+00 3.847500e-01 0.000000e+00
-1.452000e+00 3.847500e-01 0.000000e+00
-2.178000e+00 5.130000e-01 0.000000e+00
-1.996500e+00 5.130000e-01 0.000000e+00
-1.815000e+00 5.130000e-01 0.000000e+00
-1.633500e+00 5.130000e-01 0.000000e+00
-1.452000e+00 5.130000e-01 0.000000e+00
-1.452000e+00 0.000000e+00 0.000000e+00
-1.270500e+00 0.000000e+00 0.000000e+00
-1.089000e+00 0.000000e+00 0.000000e+00
-9.075000e-01 0.000000e+00 0.000000e+00
-7.260000e-01 0.000000e+00 0.000000e+00
-1.452000e+00 1.282500e-01 0.000000e+00
-1.270500e+00 1.282500e-01 0.000000e+00
-1.089000e+00 1.282500e-01 0.000000e+00
-9.075000e-01 1.282500e-01 0.000000e+00
-7.260000e-01 1.282500e-01 0.000000e+00
-1.452000e+00 2.565000e-01 0.000000e+00
-1.270500e+00 2.565000e-01 0.000000e+00
-1.089000e+00 2.565000e-01 0.000000e+00
-9.075000e-01 2.565000e-01 0.000000e+00
-7.260000e-01 2.565000e-01 0.000000e+00
-1.452000e+00 3.847500e-01 0.000000e+00
-1.270500e+00 3.847500e-01 0.000000e+00
-1.089000e+00 3.847500e-01 0.000000e+00
-9.075000e-01 3.847500e-01 0.000000e+00
-7.260000e-01 3.847500e-01 0.000000e+00
-1.452000e+00 5.130000e-01 0.000000e+00
-1.270500e+00 5.130000e-01 0.000000e+00
-1.089000e+00 5.130000e-01 0.000000e+00
-9.075000e-01 5.130000e-01 0.000000e+00
-7.260000e-01 5.130000e-01 0.000000e+00
-7.260000e-01 0.000000e+00 0.000000e+00
-5.445000e-01 0.000000e+00 0.000000e+00
-3.630000e-01 0.000000e+00 0.000000e+00
-1.815000e-01 0.000000e+00 0.000000e+00
0.000000e+00 0.000000e+00 0.000000e+00
-7.260000e-01 1.282500e-01 0.000000e+00
-5.445000e-01 1.282500e-01 0.000000e+00
-3.630000e-01 1.282500e-01 0.000000e+00
-1.815000e-01 1.282500e-01 0.000000e+00
0.000000e+00 1.282500e-01 0.000000e+00
-7.260000e-01 2.565000e-01 0.000000e+00
-5.445000e-01 2.565000e-01 0.000000e+00
-3.630000e-01 2.565000e-01 0.000000e+00
-1.815000e-01 2.565000e-01 0.000000e+00
0.000000e+00 2.565000e-01 0.000000e+00
-7.260000e-01 3.847500e-01 0.000000e+00
-5.445000e-01 3.847500e-01 0.000000e+00
-3.630000e-01 3.847500e-01 0.000000e+00
-1.815000e-01 3.847500e-01 0.000000e+00
0.000000e+00 3.847500e-01 0.000000e+00
-7.260000e-01 5.130000e-01 0.000000e+00
-5.445000e-01 5.130000e-01 0.000000e+00
-3.630000e-01 5.130000e-01 0.000000e+00
-1.815000e-01 5.130000e-01 0.000000e+00
0.000000e+00 5.130000e-01 0.000000e+00
0.000000e+00 0.000000e+00 0.000000e+00
1.815000e-01 0.000000e+00 0.000000e+00
3.630000e-01 0.000000e+00 0.000000e+00
5.445000e-01 0.000000e+00 0.000000e+00
7.260000e-01 0.000000e+00 0.000000e+00
0.000000e+00 1.282500e-01 0.000000e+00
1.815000e-01 1.282500e-01 0.000000e+00
3.630000e-01 1.282500e-01 0.000000e+00
5.445000e-01 1.282500e-01 0.000000e+00
7.260000e-01 1.282500e-01 0.000000e+00
0.000000e+00 2.565000e-01 0.000000e+00
1.815000e-01 2.565000e-01 0.000000e+00
3.630000e-01 2.565000e-01 0.000000e+00
5.445000e-01 2.565000e-01 0.000000e+00
7.260000e-01 2.565000e-01 0.000000e+00
0.000000e+00 3.847500e-01 0.000000e+00
1.815000e-01 3.847500e-01 0.000000e+00
3.630000e-01 3.847500e-01 0.000000e+00
5.445000e-01 3.847500e-01 0.000000e+00
7.260000e-01 3.847500e-01 0.000000e+00
0.000000e+00 5.130000e-01 0.000000e+00
1.815000e-01 5.130000e-01 0.000000e+00
3.630000e-01 5.130000e-01 0.000000e+00
5.445000e-01 5.130000e-01 0.000000e+00
7.260000e-01 5.130000e-01 0.000000e+00
7.260000e-01 0.000000e+00 0.000000e+00
9.075000e-01 0.000000e+00 0.000000e+00
1.089000e+00 0.000000e+00 0.000000e+00
1.270500e+00 0.000000e+00 0.000000e+00
1.452000e+00 0.000000e+00 0.000000e+00
7.260000e-01 1.282500e-01 0.000000e+00
9.075000e-01 1.282500e-01 0.000000e+00
1.089000e+00 1.282500e-01 0.000000e+00
1.270500e+00 1.282500e-01 0.000000e+00
1.452000e+00 1.282500e-01 0.000000e+00
7.260000e-01 2.565000e-01 0.000000e+00
9.075000e-01 2.565000e-01 0.000000e+00
1.089000e+00 2.565000e-01 0.000000e+00
1.270500e+00 2.565000e-01 0.000000e+00
1.452000e+00 2.565000e-01 0.000000e+00
7.260000e-01 3.847500e-01 0.000000e+00
9.075000e-01 3.847500e-01 0.000000e+00
1.089000e+00 3.847500e-01 0.000000e+00
1.270500e+00 3.847500e-01 0.000000e+00
1.452000e+00 3.847500e-01 0.000000e+00
7.260000e-01 5.130000e-01 0.000000e+00
9.075000e-01 5.130000e-01 0.000000e+00
1.089000e+00 5.130000e-01 0.000000e+00
1.270500e+00 5.130000e-01 0.000000e+00
1.452000e+00 5.130000e-01 0.000000e+00
1.452000e+00 0.000000e+00 0.000000e+00
1.633500e+00 0.000000e+00 0.000000e+00
1.815000e+00 0.000000e+00 0.000000e+00
1.996500e+00 0.000000e+00 0.000000e+00
2.178000e+00 0.000000e+00 0.000000e+00
1.452000e+00 1.282500e-01 0.000000e+00
1.633500e+00 1.282500e-01 0.000000e+00
1.815000e+00 1.282500e-01 0.000000e+00
1.996500e+00 1.282500e-01 0.000000e+00
2.178000e+00 1.282500e-01 0.000000e+00
1.452000e+00 2.565000e-01 0.000000e+00
1.633500e+00 2.565000e-01 0.000000e+00
1.815000e+00 2.565000e-01 0.000000e+00
1.996500e+00 2.565000e-01 0.000000e+00
2.178000e+00 2.565000e-01 0.000000e+00
1.452000e+00 3.847500e-01 0.000000e+00
1.633500e+00 3.847500e-01 0.000000e+00
1.815000e+00 3.847500e-01 0.000000e+00
1.996500e+00 3.847500e-01 0.000000e+00
2.178000e+00 3.847500e-01 0.000000e+00
1.452000e+00 5.130000e-01 0.000000e+00
1.633500e+00 5.130000e-01 0.000000e+00
1.815000e+00 5.130000e-01 0.000000e+00
1.996500e+00 5.130000e-01 0.000000e+00
2.178000e+00 5.130000e-01 0.000000e+00
2.178000e+00 0.000000e+00 0.000000e+00
2.359500e+00 0.000000e+00 0.000000e+00
2.541000e+00 0.000000e+00 0.000000e+00
2.722500e+00 0.000000e+00 0.000000e+00
2.904000e+00 0.000000e+00 0.000000e+00
2.178000e+00 1.282500e-01 0.000000e+00
2.359500e+00 1.282500e-01 0.000000e+00
2.541000e+00 1.282500e-01 0.000000e+00
2.722500e+00 1.282500e-01 0.000000e+00
2.904000e+00 1.282500e-01 0.000000e+00
2.178000e+00 2.565000e-01 0.000000e+00
2.359500e+00 2.565000e-01 0.000000e+00
2.541000e+00 2.565000e-01 0.000000e+00
2.722500e+00 2.565000e-01 0.000000e+00
2.904000e+00 2.565000e-01 0.000000e+00
2.178000e+00 3.847500e-01 0.000000e+00
2.359500e+00 3.847500e-01 0.000000e+00
2.541000e+00 3.847500e-01 0.000000e+00
2.722500e+00 3.847500e-01 0.000000e+00
2.904000e+00 3.847500e-01 0.000000e+00
2.178000e+00 5.130000e-01 0.000000e+00
2.359500e+00 5.130000e-01 0.000000e+00
2.541000e+00 5.130000e-01 0.000000e+00
2.722500e+00 5.130000e-01 0.000000e+00
2.904000e+00 5.130000e-01 0.000000e+00
2.904000e+00 0.000000e+00 0.000000e+00
3.085500e+00 0.000000e+00 0.000000e+00
3.267000e+00 0.000000e+00 0.000000e+00
3.448500e+00 0.000000e+00 0.000000e+00
3.630000e+00 0.000000e+00 0.000000e+00
2.904000e+00 1.282500e-01 0.000000e+00
3.085500e+00 1.282500e-01 0.000000e+00
3.267000e+00 1.282500e-01 0.000000e+00
3.448500e+00 1.282500e-01 0.000000e+00
3.630000e+00 1.282500e-01 0.000000e+00
2.904000e+00 2.565000e-01 0.000000e+00
3.085500e+00 2.565000e-01 0.000000e+00
3.267000e+00 2.565000e-01 0.000000e+00
3.448500e+00 2.565000e-01 0.000000e+00
3.630000e+00 2.565000e-01 0.000000e+00
2.904000e+00 3.847500e-01 0.000000e+00
3.085500e+00 3.847500e-01 0.000000e+00
3.267000e+00 3.847500e-01 0.000000e+00
3.448500e+00 3.847500e-01 0.000000e+00
3.630000e+00 3.847500e-01 0.000000e+00
2.904000e+00 5.130000e-01 0.000000e+00
[...]
<PointData>
<DataArray type="Float32" Name="V1" format="ascii">
0.000000e+00
0.000000e+00
0.000000e+00
0.000000e+00
0.000000e+00
1.264110e-02
1.104170e-02
9.687070e-03
8.577160e-03
7.712010e-03
2.028400e-02
1.823670e-02
1.644530e-02
1.490980e-02
1.363020e-02
2.292870e-02
2.158500e-02
2.027480e-02
1.899800e-02
1.775460e-02
2.057510e-02
2.108660e-02
2.117550e-02
2.084170e-02
2.008520e-02
0.000000e+00
0.000000e+00
0.000000e+00
0.000000e+00
0.000000e+00
7.712010e-03
6.726670e-03
6.023530e-03
5.602580e-03
5.463820e-03
1.363020e-02
1.215450e-02
1.105720e-02
1.033830e-02
9.997750e-03
1.775460e-02
1.628360e-02
1.510110e-02
1.420720e-02
1.360180e-02
2.008520e-02
1.911380e-02
1.815510e-02
1.720920e-02
1.627590e-02
0.000000e+00
0.000000e+00
0.000000e+00
0.000000e+00
0.000000e+00
5.463820e-03
5.455610e-03
5.414100e-03
5.339260e-03
5.231120e-03
9.997750e-03
9.903780e-03
9.719630e-03
9.445280e-03
9.080750e-03
1.360180e-02
1.334450e-02
1.291660e-02
1.231810e-02
1.154890e-02
1.627590e-02
1.577780e-02
1.500500e-02
1.395760e-02
1.263560e-02
0.000000e+00
0.000000e+00
0.000000e+00
0.000000e+00
0.000000e+00
5.231120e-03
3.751230e-03
3.653180e-03
4.936990e-03
7.602640e-03
9.080750e-03
6.407740e-03
5.945840e-03
7.695020e-03
1.165530e-02
1.154890e-02
7.969550e-03
6.877960e-03
8.274100e-03
1.215800e-02
1.263560e-02
8.436650e-03
6.449540e-03
6.674230e-03
9.110710e-03
0.000000e+00
0.000000e+00
0.000000e+00
0.000000e+00
0.000000e+00
7.602640e-03
3.530180e-03
-3.116720e-03
-1.233810e-02
-2.413380e-02
1.165530e-02
3.029130e-03
-8.614300e-03
-2.327500e-02
-4.095300e-02
1.215800e-02
-1.503140e-03
-1.649280e-02
-3.281090e-02
-5.045750e-02
9.110710e-03
-1.006660e-02
-2.675210e-02
-4.094570e-02
-5.264730e-02
0.000000e+00
0.000000e+00
0.000000e+00
0.000000e+00
0.000000e+00
-2.413380e-02
-2.313780e-02
-2.213360e-02
-2.112120e-02
-2.010070e-02
-4.095300e-02
-3.823810e-02
-3.573780e-02
-3.345220e-02
-3.138120e-02
-5.045750e-02
-4.530100e-02
-4.081280e-02
-3.699300e-02
-3.384130e-02
-5.264730e-02
-4.432650e-02
-3.735860e-02
-3.174350e-02
-2.748120e-02
0.000000e+00
0.000000e+00
0.000000e+00
0.000000e+00
0.000000e+00
-2.010070e-02
-1.784880e-02
-1.485520e-02
-1.111970e-02
-6.642600e-03
-3.138120e-02
-2.779370e-02
-2.306150e-02
-1.718470e-02
-1.016310e-02
-3.384130e-02
-2.983460e-02
-2.461910e-02
-1.819470e-02
-1.056160e-02
-2.748120e-02
-2.397160e-02
-1.952780e-02
-1.414990e-02
-7.837920e-03
0.000000e+00
0.000000e+00
0.000000e+00
0.000000e+00
0.000000e+00
-6.642600e-03
-2.945080e-03
-3.805390e-05
2.078470e-03
3.404490e-03
-1.016310e-02
-4.235850e-03
4.527070e-04
3.902560e-03
6.113710e-03
-1.056160e-02
-3.872330e-03
1.472280e-03
5.472280e-03
8.127660e-03
-7.837920e-03
-1.854510e-03
3.020670e-03
6.787630e-03
9.446350e-03
0.000000e+00
0.000000e+00
0.000000e+00
0.000000e+00
0.000000e+00
3.404490e-03
4.936040e-03
6.159140e-03
7.073770e-03
7.679950e-03
6.113710e-03
8.631670e-03
1.065400e-02
1.218070e-02
1.321180e-02
8.127660e-03
1.108690e-02
1.348460e-02
1.532080e-02
1.659540e-02
9.446350e-03
1.230170e-02
1.465090e-02
1.649400e-02
1.783090e-02
0.000000e+00
0.000000e+00
0.000000e+00
0.000000e+00
0.000000e+00
7.679950e-03
8.257800e-03
8.860780e-03
9.488900e-03
1.014220e-02
1.321180e-02
1.427980e-02
1.533800e-02
1.638650e-02
1.742530e-02
1.659540e-02
1.806600e-02
1.943180e-02
2.069290e-02
2.184940e-02
1.783090e-02
1.961630e-02
2.114200e-02
2.240800e-02
2.341440e-02
2.057510e-02
2.108660e-02
2.117550e-02
2.084170e-02
2.008520e-02
2.078850e-02
2.097390e-02
2.100950e-02
2.089550e-02
2.063180e-02
2.103660e-02
2.096030e-02
2.091600e-02
2.090390e-02
2.092380e-02
2.131930e-02
2.104570e-02
2.089490e-02
2.086670e-02
2.096120e-02
2.163650e-02
2.123040e-02
2.094620e-02
2.078410e-02
2.074400e-02
2.008520e-02
1.911380e-02
1.815510e-02
1.720920e-02
1.627590e-02
2.063180e-02
2.007770e-02
1.943640e-02
1.870800e-02
1.789230e-02
2.092380e-02
2.065260e-02
2.025390e-02
1.972770e-02
1.907400e-02
2.096120e-02
2.083850e-02
2.060760e-02
2.026830e-02
1.982080e-02
2.074400e-02
2.063540e-02
2.049740e-02
2.032990e-02
2.013290e-02
1.627590e-02
1.577780e-02
1.500500e-02
1.395760e-02
1.263560e-02
1.789230e-02
1.700440e-02
1.594670e-02
1.471920e-02
1.332190e-02
1.907400e-02
1.779130e-02
1.654830e-02
1.534520e-02
1.418170e-02
1.982080e-02
1.813840e-02
1.681000e-02
1.583560e-02
1.521510e-02
2.013290e-02
1.804590e-02
1.673170e-02
1.619040e-02
1.642190e-02
1.263560e-02
8.436650e-03
6.449540e-03
6.674230e-03
9.110710e-03
1.332190e-02
8.955340e-03
6.226790e-03
5.136270e-03
5.683760e-03
1.418170e-02
9.550220e-03
6.225060e-03
4.206240e-03
3.493780e-03
1.521510e-02
1.022130e-02
6.444330e-03
3.884150e-03
2.540740e-03
1.642190e-02
1.096860e-02
6.884620e-03
4.169980e-03
2.824670e-03
9.110710e-03
-1.006660e-02
-2.675210e-02
-4.094570e-02
-5.264730e-02
5.683760e-03
-1.456210e-02
-3.105270e-02
-4.378810e-02
-5.276810e-02
3.493780e-03
-1.572810e-02
-3.068970e-02
-4.139080e-02
-4.783170e-02
2.540740e-03
-1.356460e-02
-2.566280e-02
-3.375390e-02
-3.783800e-02
2.824670e-03
-8.071540e-03
-1.597220e-02
-2.087740e-02
-2.278710e-02
-5.264730e-02
-4.432650e-02
-3.735860e-02
-3.174350e-02
-2.748120e-02
-5.276810e-02
-4.436760e-02
-3.651750e-02
-2.921780e-02
-2.246840e-02
-4.783170e-02
-4.023970e-02
-3.241060e-02
-2.434420e-02
-1.604050e-02
-3.783800e-02
-3.194290e-02
-2.503780e-02
-1.712270e-02
-8.197580e-03
-2.278710e-02
-1.947710e-02
-1.439910e-02
-7.553280e-03
1.060460e-03
-2.748120e-02
-2.397160e-02
-1.952780e-02
-1.414990e-02
-7.837920e-03
-2.246840e-02
-2.066660e-02
-1.740450e-02
-1.268200e-02
-6.499190e-03
-1.604050e-02
-1.541750e-02
-1.322440e-02
-9.461040e-03
-4.127580e-03
-8.197580e-03
-8.224240e-03
-6.987380e-03
-4.486990e-03
-7.230830e-04
1.060460e-03
9.132120e-04
1.306440e-03
2.240130e-03
3.714300e-03
-7.837920e-03
-1.854510e-03
3.020670e-03
6.787630e-03
9.446350e-03
-6.499190e-03
-6.194930e-05
4.972650e-03
8.604610e-03
1.083390e-02
-4.127580e-03
2.349700e-03
7.248960e-03
1.057020e-02
1.231340e-02
-7.230830e-04
5.380440e-03
9.849580e-03
1.268430e-02
1.388470e-02
3.714300e-03
9.030270e-03
1.277450e-02
1.494710e-02
1.554790e-02
9.446350e-03
1.230170e-02
1.465090e-02
1.649400e-02
1.783090e-02
1.083390e-02
1.342200e-02
1.556330e-02
1.725780e-02
1.850560e-02
1.231340e-02
1.456360e-02
1.644340e-02
1.795280e-02
1.909160e-02
1.388470e-02
1.572670e-02
1.729140e-02
1.857890e-02
1.958910e-02
1.554790e-02
1.691100e-02
1.810710e-02
1.913610e-02
1.999810e-02
1.783090e-02
1.961630e-02
2.114200e-02
2.240800e-02
2.341440e-02
1.850560e-02
2.036240e-02
2.192670e-02
2.319850e-02
2.417780e-02
1.909160e-02
2.095330e-02
2.249450e-02
2.371530e-02
2.461580e-02
1.958910e-02
2.138910e-02
2.284560e-02
2.395860e-02
2.472820e-02
1.999810e-02
2.166970e-02
2.297980e-02
2.392830e-02
2.451530e-02
2.163650e-02
2.123040e-02
2.094620e-02
2.078410e-02
2.074400e-02
2.197900e-02
2.158650e-02
2.129270e-02
2.109750e-02
2.100090e-02
2.233590e-02
2.198090e-02
2.169920e-02
2.149060e-02
2.135530e-02
2.270730e-02
2.241360e-02
2.216570e-02
2.196350e-02
2.180720e-02
2.309330e-02
2.288460e-02
2.269220e-02
2.251620e-02
2.235640e-02
2.074400e-02
2.063540e-02
2.049740e-02
2.032990e-02
2.013290e-02
2.100090e-02
2.076000e-02
2.057920e-02
2.045850e-02
2.039780e-02
2.135530e-02
2.100170e-02
2.078020e-02
2.069070e-02
2.073340e-02
2.180720e-02
2.136050e-02
2.110030e-02
2.102660e-02
2.113940e-02
2.235640e-02
2.183630e-02
2.153960e-02
2.146610e-02
2.161600e-02
2.013290e-02
1.804590e-02
1.673170e-02
1.619040e-02
1.642190e-02
2.039780e-02
1.797700e-02
1.671720e-02
1.661850e-02
1.768080e-02
2.073340e-02
1.810650e-02
1.692580e-02
1.719130e-02
1.890290e-02
2.113940e-02
1.843440e-02
1.735750e-02
1.790880e-02
2.008810e-02
2.161600e-02
1.896070e-02
1.801240e-02
1.877090e-02
2.123640e-02
1.642190e-02
1.096860e-02
6.884620e-03
4.169980e-03
2.824670e-03
1.768080e-02
1.207930e-02
8.135730e-03
5.850190e-03
5.222670e-03
1.890290e-02
1.361130e-02
1.002220e-02
8.135390e-03
7.951030e-03
2.008810e-02
1.556470e-02
1.254390e-02
1.102560e-02
1.100980e-02
2.123640e-02
1.793950e-02
1.570100e-02
1.452070e-02
1.439890e-02
2.824670e-03
-8.071540e-03
-1.597220e-02
-2.087740e-02
-2.278710e-02
5.222670e-03
1.799510e-03
-7.968210e-04
-2.566330e-03
-3.509010e-03
7.951030e-03
1.076980e-02
1.263630e-02
1.355030e-02
1.351190e-02
1.100980e-02
1.883950e-02
2.432700e-02
2.747240e-02
2.827570e-02
1.439890e-02
2.600840e-02
3.427540e-02
3.920010e-02
4.078230e-02
-2.278710e-02
-1.947710e-02
-1.439910e-02
-7.553280e-03
1.060460e-03
-3.509010e-03
-5.249880e-03
-3.804200e-03
8.280290e-04
8.646810e-03
1.351190e-02
8.476110e-03
7.431650e-03
1.037860e-02
1.731680e-02
2.827570e-02
2.170090e-02
1.930850e-02
2.109830e-02
2.707050e-02
4.078230e-02
3.442450e-02
3.182620e-02
3.298730e-02
3.790770e-02
1.060460e-03
9.132120e-04
1.306440e-03
2.240130e-03
3.714300e-03
8.646810e-03
8.388620e-03
8.220890e-03
8.143620e-03
8.156820e-03
1.731680e-02
1.634790e-02
1.521730e-02
1.392520e-02
1.247160e-02
2.707050e-02
2.479090e-02
2.229570e-02
1.958500e-02
1.665860e-02
3.790770e-02
3.371780e-02
2.945610e-02
2.512280e-02
2.071780e-02
3.714300e-03
9.030270e-03
1.277450e-02
1.494710e-02
1.554790e-02
8.156820e-03
1.257110e-02
1.556420e-02
1.713600e-02
1.728670e-02
1.247160e-02
1.598240e-02
1.823850e-02
1.923990e-02
1.898660e-02
1.665860e-02
1.926420e-02
2.079750e-02
2.125860e-02
2.064750e-02
2.071780e-02
2.241640e-02
2.324120e-02
2.319230e-02
2.226950e-02
1.554790e-02
1.691100e-02
1.810710e-02
1.913610e-02
1.999810e-02
1.728670e-02
1.822030e-02
1.909150e-02
1.990020e-02
2.064640e-02
1.898660e-02
1.952060e-02
2.008300e-02
2.067380e-02
2.129310e-02
2.064750e-02
2.081170e-02
2.108160e-02
2.145700e-02
2.193810e-02
2.226950e-02
2.209380e-02
2.208730e-02
2.224980e-02
2.258160e-02
1.999810e-02
2.166970e-02
2.297980e-02
2.392830e-02
2.451530e-02
2.064640e-02
2.209170e-02
2.321790e-02
2.402500e-02
2.451300e-02
2.129310e-02
2.251240e-02
2.345720e-02
2.412760e-02
2.452350e-02
2.193810e-02
2.293180e-02
2.369780e-02
2.423610e-02
2.454680e-02
2.258160e-02
2.334990e-02
2.393950e-02
2.435050e-02
2.458280e-02
2.309330e-02
2.288460e-02
2.269220e-02
2.251620e-02
2.235640e-02
2.348320e-02
2.330100e-02
2.314130e-02
2.300410e-02
2.288930e-02
2.386930e-02
2.370780e-02
2.357620e-02
2.347440e-02
2.340240e-02
2.425160e-02
2.410500e-02
2.399680e-02
2.392700e-02
2.389570e-02
2.463000e-02
2.449250e-02
2.440320e-02
2.436210e-02
2.436920e-02
2.235640e-02
2.183630e-02
2.153960e-02
2.146610e-02
2.161600e-02
2.288930e-02
2.236580e-02
2.206970e-02
2.200100e-02
2.215970e-02
2.340240e-02
2.289760e-02
2.261640e-02
2.255880e-02
2.272500e-02
2.389570e-02
2.343160e-02
2.317950e-02
2.313960e-02
2.331190e-02
2.436920e-02
2.396780e-02
2.375920e-02
2.374340e-02
2.392040e-02
2.161600e-02
1.896070e-02
1.801240e-02
1.877090e-02
2.123640e-02
2.215970e-02
2.000760e-02
1.924310e-02
1.986610e-02
2.187660e-02
2.272500e-02
2.110780e-02
2.054890e-02
2.104840e-02
2.260610e-02
2.331190e-02
2.226130e-02
2.193000e-02
2.231780e-02
2.342470e-02
2.392040e-02
2.346820e-02
2.338620e-02
2.367430e-02
2.433260e-02
2.123640e-02
1.793950e-02
1.570100e-02
1.452070e-02
1.439890e-02
2.187660e-02
2.027400e-02
1.914410e-02
1.848690e-02
1.830260e-02
2.260610e-02
2.223910e-02
2.202110e-02
2.195200e-02
2.203180e-02
2.342470e-02
2.383490e-02
2.433190e-02
2.491580e-02
2.558650e-02
2.433260e-02
2.506140e-02
2.607660e-02
2.737850e-02
2.896680e-02
1.439890e-02
2.600840e-02
3.427540e-02
3.920010e-02
4.078230e-02
1.830260e-02
3.042420e-02
3.976150e-02
4.631460e-02
5.008350e-02
2.203180e-02
3.377400e-02
4.332590e-02
5.068760e-02
5.585890e-02
2.558650e-02
3.605780e-02
4.496860e-02
5.231890e-02
5.810870e-02
2.896680e-02
3.727570e-02
4.468970e-02
5.120870e-02
5.683270e-02
4.078230e-02
3.442450e-02
3.182620e-02
3.298730e-02
3.790770e-02
5.008350e-02
4.637890e-02
4.442270e-02
4.421470e-02
4.575500e-02
5.585890e-02
5.419390e-02
5.279100e-02
5.165010e-02
5.077130e-02
5.810870e-02
5.786960e-02
5.693120e-02
5.529360e-02
5.295680e-02
5.683270e-02
5.740580e-02
5.684330e-02
5.514510e-02
5.231140e-02
3.790770e-02
3.371780e-02
2.945610e-02
2.512280e-02
2.071780e-02
4.575500e-02
3.946540e-02
3.377260e-02
2.867650e-02
2.417720e-02
5.077130e-02
4.336710e-02
3.696610e-02
3.156800e-02
2.717310e-02
5.295680e-02
4.542310e-02
3.903660e-02
3.379740e-02
2.970540e-02
5.231140e-02
4.563320e-02
3.998420e-02
3.536460e-02
3.177420e-02
2.071780e-02
2.241640e-02
2.324120e-02
2.319230e-02
2.226950e-02
2.417720e-02
2.494850e-02
2.511190e-02
2.466740e-02
2.361500e-02
2.717310e-02
2.714210e-02
2.673840e-02
2.596210e-02
2.481310e-02
2.970540e-02
2.899720e-02
2.812090e-02
2.707640e-02
2.586380e-02
3.177420e-02
3.051390e-02
2.925930e-02
2.801030e-02
2.676710e-02
2.226950e-02
2.209380e-02
2.208730e-02
2.224980e-02
2.258160e-02
2.361500e-02
2.328660e-02
2.311320e-02
2.309480e-02
2.323130e-02
2.481310e-02
2.436630e-02
2.405690e-02
2.388470e-02
2.384980e-02
2.586380e-02
2.533290e-02
2.491810e-02
2.461950e-02
2.443700e-02
2.676710e-02
2.618630e-02
2.569700e-02
2.529930e-02
2.499300e-02
2.258160e-02
2.334990e-02
2.393950e-02
2.435050e-02
2.458280e-02
2.323130e-02
2.380610e-02
2.424080e-02
2.453550e-02
2.469010e-02
2.384980e-02
2.424540e-02
2.453640e-02
2.472300e-02
2.480500e-02
2.443700e-02
2.466780e-02
2.482650e-02
2.491300e-02
2.492760e-02
2.499300e-02
2.507330e-02
2.511090e-02
2.510570e-02
2.505770e-02
2.463000e-02
2.449250e-02
2.440320e-02
2.436210e-02
2.436920e-02
2.499690e-02
2.488590e-02
2.482170e-02
2.480420e-02
2.483340e-02
2.534870e-02
2.526770e-02
2.523010e-02
2.523590e-02
2.528510e-02
2.568540e-02
2.563780e-02
2.562850e-02
2.565730e-02
2.572430e-02
2.600690e-02
2.599630e-02
2.601680e-02
2.606830e-02
2.615090e-02
2.436920e-02
2.396780e-02
2.375920e-02
2.374340e-02
2.392040e-02
2.483340e-02
2.451340e-02
2.436290e-02
2.438170e-02
2.457010e-02
2.528510e-02
2.504330e-02
2.494900e-02
2.500210e-02
2.520280e-02
2.572430e-02
2.555740e-02
2.551750e-02
2.560450e-02
2.581850e-02
2.615090e-02
2.605580e-02
2.606850e-02
2.618900e-02
2.641720e-02
2.392040e-02
2.346820e-02
2.338620e-02
2.367430e-02
2.433260e-02
2.457010e-02
2.439680e-02
2.451210e-02
2.491610e-02
2.560880e-02
2.520280e-02
2.522340e-02
2.548510e-02
2.598790e-02
2.673180e-02
2.581850e-02
2.594810e-02
2.630520e-02
2.688970e-02
2.770160e-02
2.641720e-02
2.657100e-02
2.697240e-02
2.762150e-02
2.851820e-02
2.433260e-02
2.506140e-02
2.607660e-02
2.737850e-02
2.896680e-02
2.560880e-02
2.646580e-02
2.772120e-02
2.937490e-02
3.142700e-02
2.673180e-02
2.776420e-02
2.920130e-02
3.104310e-02
3.328970e-02
2.770160e-02
2.895660e-02
3.051710e-02
3.238320e-02
3.455490e-02
2.851820e-02
3.004290e-02
3.166860e-02
3.339520e-02
3.522270e-02
2.896680e-02
3.727570e-02
4.468970e-02
5.120870e-02
5.683270e-02
3.142700e-02
3.864090e-02
4.504370e-02
5.063510e-02
5.541540e-02
3.328970e-02
3.938940e-02
4.478170e-02
4.946650e-02
5.344390e-02
3.455490e-02
3.952110e-02
4.390370e-02
4.770280e-02
5.091830e-02
3.522270e-02
3.903600e-02
4.240980e-02
4.534400e-02
4.783860e-02
5.683270e-02
5.740580e-02
5.684330e-02
5.514510e-02
5.231140e-02
5.541540e-02
5.586410e-02
5.525860e-02
5.359880e-02
5.088470e-02
5.344390e-02
5.377800e-02
5.318240e-02
5.165700e-02
4.920190e-02
5.091830e-02
5.114760e-02
5.061480e-02
4.932000e-02
4.726300e-02
4.783860e-02
4.797290e-02
4.755590e-02
4.658760e-02
4.506810e-02
5.231140e-02
4.563320e-02
3.998420e-02
3.536460e-02
3.177420e-02
5.088470e-02
4.512840e-02
4.023150e-02
3.619400e-02
3.301590e-02
4.920190e-02
4.441500e-02
4.028640e-02
3.681600e-02
3.400390e-02
4.726300e-02
4.349290e-02
4.014870e-02
3.723050e-02
3.473820e-02
4.506810e-02
4.236210e-02
3.981860e-02
3.743750e-02
3.521880e-02
3.177420e-02
3.051390e-02
2.925930e-02
2.801030e-02
2.676710e-02
3.301590e-02
3.155260e-02
3.016120e-02
2.884150e-02
2.759370e-02
3.400390e-02
3.237460e-02
3.087940e-02
2.951830e-02
2.829120e-02
3.473820e-02
3.297990e-02
3.141400e-02
3.004060e-02
2.885950e-02
3.521880e-02
3.336840e-02
3.176490e-02
3.040840e-02
2.929880e-02
2.676710e-02
2.618630e-02
2.569700e-02
2.529930e-02
2.499300e-02
2.759370e-02
2.695080e-02
2.639130e-02
2.591530e-02
2.552270e-02
2.829120e-02
2.760320e-02
2.699130e-02
2.645550e-02
2.599570e-02
2.885950e-02
2.814360e-02
2.749710e-02
2.692000e-02
2.641220e-02
2.929880e-02
2.857200e-02
2.790860e-02
2.730870e-02
2.677210e-02
2.499300e-02
2.507330e-02
2.511090e-02
2.510570e-02
2.505770e-02
2.552270e-02
2.546770e-02
2.539650e-02
2.530900e-02
2.520520e-02
2.599570e-02
2.582540e-02
2.566120e-02
2.550310e-02
2.535110e-02
2.641220e-02
2.614620e-02
2.590480e-02
2.568790e-02
2.549550e-02
2.677210e-02
2.643020e-02
2.612730e-02
2.586340e-02
2.563840e-02
2.600690e-02
2.599630e-02
2.601680e-02
2.606830e-02
2.615090e-02
2.630990e-02
2.633400e-02
2.638350e-02
2.645840e-02
2.655880e-02
2.659390e-02
2.665050e-02
2.672710e-02
2.682370e-02
2.694030e-02
2.685910e-02
2.694590e-02
2.704750e-02
2.716400e-02
2.729540e-02
2.710540e-02
2.722000e-02
2.734470e-02
2.747940e-02
2.762420e-02
2.615090e-02
2.605580e-02
2.606850e-02
2.618900e-02
2.641720e-02
2.655880e-02
2.650970e-02
2.656060e-02
2.671130e-02
2.696180e-02
2.694030e-02
2.692990e-02
2.701220e-02
2.718710e-02
2.745460e-02
2.729540e-02
2.731640e-02
2.742340e-02
2.761640e-02
2.789540e-02
2.762420e-02
2.766910e-02
2.779410e-02
2.799920e-02
2.828430e-02
2.641720e-02
2.657100e-02
2.697240e-02
2.762150e-02
2.851820e-02
2.696180e-02
2.718590e-02
2.762300e-02
2.827300e-02
2.913610e-02
2.745460e-02
2.774360e-02
2.820840e-02
2.884910e-02
2.966550e-02
2.789540e-02
2.824410e-02
2.872890e-02
2.934960e-02
3.010630e-02
2.828430e-02
2.868750e-02
2.918420e-02
2.977460e-02
3.045860e-02
2.851820e-02
3.004290e-02
3.166860e-02
3.339520e-02
3.522270e-02
2.913610e-02
3.064610e-02
3.220810e-02
3.382210e-02
3.548820e-02
2.966550e-02
3.109570e-02
3.255170e-02
3.403350e-02
3.554110e-02
3.010630e-02
3.139170e-02
3.269940e-02
3.402930e-02
3.538150e-02
3.045860e-02
3.153410e-02
3.265110e-02
3.380950e-02
3.500930e-02
3.522270e-02
3.903600e-02
4.240980e-02
4.534400e-02
4.783860e-02
3.548820e-02
3.852680e-02
4.118810e-02
4.347210e-02
4.537870e-02
3.554110e-02
3.796180e-02
4.005930e-02
4.183340e-02
4.328410e-02
3.538150e-02
3.734110e-02
3.902320e-02
4.042790e-02
4.155510e-02
3.500930e-02
3.666450e-02
3.807990e-02
3.925560e-02
4.019150e-02
4.783860e-02
4.797290e-02
4.755590e-02
4.658760e-02
4.506810e-02
4.537870e-02
4.554520e-02
4.526990e-02
4.455280e-02
4.339380e-02
4.328410e-02
4.348490e-02
4.332470e-02
4.280330e-02
4.192090e-02
4.155510e-02
4.179210e-02
4.172010e-02
4.133930e-02
4.064960e-02
4.019150e-02
4.046660e-02
4.045630e-02
4.016060e-02
3.957960e-02
4.506810e-02
4.236210e-02
3.981860e-02
3.743750e-02
3.521880e-02
4.339380e-02
4.114980e-02
3.902320e-02
3.701390e-02
3.512200e-02
4.192090e-02
4.006950e-02
3.829800e-02
3.660630e-02
3.499460e-02
4.064960e-02
3.912110e-02
3.764290e-02
3.621470e-02
3.483670e-02
3.957960e-02
3.830480e-02
3.705790e-02
3.583910e-02
3.464820e-02
3.521880e-02
3.336840e-02
3.176490e-02
3.040840e-02
2.929880e-02
3.512200e-02
3.346400e-02
3.200520e-02
3.074580e-02
2.968560e-02
3.499460e-02
3.350750e-02
3.217940e-02
3.101050e-02
3.000070e-02
3.483670e-02
3.349890e-02
3.228750e-02
3.120260e-02
3.024410e-02
3.464820e-02
3.343830e-02
3.232960e-02
3.132210e-02
3.041580e-02
2.929880e-02
2.857200e-02
2.790860e-02
2.730870e-02
2.677210e-02
2.968560e-02
2.893960e-02
2.825930e-02
2.764460e-02
2.709560e-02
3.000070e-02
2.924270e-02
2.855270e-02
2.793060e-02
2.737640e-02
3.024410e-02
2.948130e-02
2.878880e-02
2.816660e-02
2.761480e-02
3.041580e-02
2.965540e-02
2.896770e-02
2.835270e-02
2.781050e-02
2.677210e-02
2.643020e-02
2.612730e-02
2.586340e-02
2.563840e-02
2.709560e-02
2.670590e-02
2.636010e-02
2.605820e-02
2.580020e-02
2.737640e-02
2.694960e-02
2.656990e-02
2.623730e-02
2.595190e-02
2.761480e-02
2.716140e-02
2.675670e-02
2.640070e-02
2.609340e-02
2.781050e-02
2.734120e-02
2.692050e-02
2.654830e-02
2.622470e-02
2.710540e-02
2.722000e-02
2.734470e-02
2.747940e-02
2.762420e-02
2.733260e-02
2.746380e-02
2.760410e-02
2.775330e-02
2.791150e-02
2.754220e-02
2.768750e-02
2.784060e-02
2.800150e-02
2.817010e-02
2.773410e-02
2.789110e-02
2.805430e-02
2.822400e-02
2.840000e-02
2.790840e-02
2.807450e-02