<?xml version="1.0"?>
<VTKFile type="UnstructuredGrid" version="0.1" byte_order="LittleEndian" compressor="vtkZLibDataCompressor">
<UnstructuredGrid>
<Piece NumberOfPoints="2500" NumberOfCells="1600">
<Points>
<DataArray type="Float32" NumberOfComponents="3" format="ascii">
-3.630000e+00 0.000000e+00 0.000000e+00
-3.448500e+00 0.000000e+00 0.000000e+00
-3.267000e+00 0.000000e+00 0.000000e+00
-3.085500e+00 0.000000e+00 0.000000e+00
-2.904000e+00 0.000000e+00 0.000000e+00
-3.630000e+00 1.282500e-01 0.000000e+00
-3.448500e+00 1.282500e-01 0.000000e+00
-3.267000e+00 1.282500e-01 0.000000e+00
-3.085500e+00 1.282500e-01 0.000000e+00
-2.904000e+00 1.282500e-01 0.000000e+00
-3.630000e+00 2.565000e-01 0.000000e+00
-3.448500e+00 2.565000e-01 0.000000e+00
-3.267000e+00 2.565000e-01 0.000000e+00
-3.085500e+00 2.565000e-01 0.000000e+00
-2.904000e+00 2.565000e-01 0.000000e+00
-3.630000e+00 3.847500e-01 0.000000e+00
-3.448500e+00 3.847500e-01 0.000000e+00
-3.267000e+00 3.847500e-01 0.000000e+00
-3.085500e+00 3.847500e-01 0.000000e+00
-2.904000e+00 3.847500e-01 0.000000e+00
-3.630000e+00 5.130000e-01 0.000000e+00
-3.448500e+00 5.130000e-01 0.000000e+00
-3.267000e+00 5.130000e-01 0.000000e+00
-3.085500e+00 5.130000e-01 0.000000e+00
-2.904000e+00 5.130000e-01 0.000000e+00
-2.904000e+00 0.000000e+00 0.000000e+00
-2.722500e+00 0.000000e+00 0.000000e+00
-2.541000e+00 0.000000e+00 0.000000e+00
-2.359500e+00 0.000000e+00 0.000000e+00
-2.178000e+00 0.000000e+00 0.000000e+00
-2.904000e+00 1.282500e-01 0.000000e+00
-2.722500e+00 1.282500e-01 0.000000e+00
-2.541000e+00 1.282500e-01 0.000000e+00
-2.359500e+00 1.282500e-01 0.000000e+00
-2.178000e+00 1.282500e-01 0.000000e+00
-2.904000e+00 2.565000e-01 0.000000e+00
-2.722500e+00 2.565000e-01 0.000000e+00
-2.541000e+00 2.565000e-01 0.000000e+00
-2.359500e+00 2.565000e-01 0.000000e+00
-2.178000e+00 2.565000e-01 0.000000e+00
-2.904000e+00 3.847500e-01 0.000000e+00
-2.722500e+00 3.847500e-01 0.000000e+00
-2.541000e+00 3.847500e-01 0.000000e+00
-2.359500e+00 3.847500e-01 0.000000e+00
-2.178000e+00 3.847500e-01 0.000000e+00
-2.904000e+00 5.130000e-01 0.000000e+00
-2.722500e+00 5.130000e-01 0.000000e+00
-2.541000e+00 5.130000e-01 0.000000e+00
-2.359500e+00 5.130000e-01 0.000000e+00
-2.178000e+00 5.130000e-01 0.000000e+00
-2.178000e+00 0.000000e+00 0.000000e+00
-1.996500e+00 0.000000e+00 0.000000e+00
-1.815000e+00 0.000000e+00 0.000000e+00
-1.633500e+00 0.000000e+00 0.000000e+00
-1.452000e+00 0.000000e+00 0.000000e+00
-2.178000e+00 1.282500e-01 0.000000e+00
-1.996500e+00 1.282500e-01 0.000000e+00
-1.815000e+00 1.282500e-01 0.000000e+00
-1.633500e+00 1.282500e-01 0.000000e+00
-1.452000e+00 1.282500e-01 0.000000e+00
-2.178000e+00 2.565000e-01 0.000000e+00
-1.996500e+00 2.565000e-01 0.000000e+00
-1.815000e+00 2.565000e-01 0.000000e+00
-1.633500e+00 2.565000e-01 0.000000e+00
-1.452000e+00 2.565000e-01 0.000000e+00
-2.178000e+00 3.847500e-01 0.000000e+00
-1.996500e+00 3.847500e-01 0.000000e+00
-1.815000e+00 3.847500e-01 0.000000e+00
-1.633500e+00 3.847500e-01 0.000000e+00
-1.452000e+00 3.847500e-01 0.000000e+00
-2.178000e+00 5.130000e-01 0.000000e+00
-1.996500e+00 5.130000e-01 0.000000e+00
-1.815000e+00 5.130000e-01 0.000000e+00
-1.633500e+00 5.130000e-01 0.000000e+00
-1.452000e+00 5.130000e-01 0.000000e+00
-1.452000e+00 0.000000e+00 0.000000e+00
-1.270500e+00 0.000000e+00 0.000000e+00
-1.089000e+00 0.000000e+00 0.000000e+00
-9.075000e-01 0.000000e+00 0.000000e+00
-7.260000e-01 0.000000e+00 0.000000e+00
-1.452000e+00 1.282500e-01 0.000000e+00
-1.270500e+00 1.282500e-01 0.000000e+00
-1.089000e+00 1.282500e-01 0.000000e+00
-9.075000e-01 1.282500e-01 0.000000e+00
-7.260000e-01 1.282500e-01 0.000000e+00
-1.452000e+00 2.565000e-01 0.000000e+00
-1.270500e+00 2.565000e-01 0.000000e+00
-1.089000e+00 2.565000e-01 0.000000e+00
-9.075000e-01 2.565000e-01 0.000000e+00
-7.260000e-01 2.565000e-01 0.000000e+00
-1.452000e+00 3.847500e-01 0.000000e+00
-1.270500e+00 3.847500e-01 0.000000e+00
-1.089000e+00 3.847500e-01 0.000000e+00
-9.075000e-01 3.847500e-01 0.000000e+00
-7.260000e-01 3.847500e-01 0.000000e+00
-1.452000e+00 5.130000e-01 0.000000e+00
-1.270500e+00 5.130000e-01 0.000000e+00
-1.089000e+00 5.130000e-01 0.000000e+00
-9.075000e-01 5.130000e-01 0.000000e+00
-7.260000e-01 5.130000e-01 0.000000e+00
-7.260000e-01 0.000000e+00 0.000000e+00
-5.445000e-01 0.000000e+00 0.000000e+00
-3.630000e-01 0.000000e+00 0.000000e+00
-1.815000e-01 0.000000e+00 0.000000e+00
0.000000e+00 0.000000e+00 0.000000e+00
-7.260000e-01 1.282500e-01 0.000000e+00
-5.445000e-01 1.282500e-01 0.000000e+00
-3.630000e-01 1.282500e-01 0.000000e+00
-1.815000e-01 1.282500e-01 0.000000e+00
0.000000e+00 1.282500e-01 0.000000e+00
-7.260000e-01 2.565000e-01 0.000000e+00
-5.445000e-01 2.565000e-01 0.000000e+00
-3.630000e-01 2.565000e-01 0.000000e+00
-1.815000e-01 2.565000e-01 0.000000e+00
0.000000e+00 2.565000e-01 0.000000e+00
-7.260000e-01 3.847500e-01 0.000000e+00
-5.445000e-01 3.847500e-01 0.000000e+00
-3.630000e-01 3.847500e-01 0.000000e+00
-1.815000e-01 3.847500e-01 0.000000e+00
0.000000e+00 3.847500e-01 0.000000e+00
-7.260000e-01 5.130000e-01 0.000000e+00
-5.445000e-01 5.130000e-01 0.000000e+00
-3.630000e-01 5.130000e-01 0.000000e+00
-1.815000e-01 5.130000e-01 0.000000e+00
0.000000e+00 5.130000e-01 0.000000e+00
0.000000e+00 0.000000e+00 0.000000e+00
1.815000e-01 0.000000e+00 0.000000e+00
3.630000e-01 0.000000e+00 0.000000e+00
5.445000e-01 0.000000e+00 0.000000e+00
7.260000e-01 0.000000e+00 0.000000e+00
0.000000e+00 1.282500e-01 0.000000e+00
1.815000e-01 1.282500e-01 0.000000e+00
3.630000e-01 1.282500e-01 0.000000e+00
5.445000e-01 1.282500e-01 0.000000e+00
7.260000e-01 1.282500e-01 0.000000e+00
0.000000e+00 2.565000e-01 0.000000e+00
1.815000e-01 2.565000e-01 0.000000e+00
3.630000e-01 2.565000e-01 0.000000e+00
5.445000e-01 2.565000e-01 0.000000e+00
7.260000e-01 2.565000e-01 0.000000e+00
0.000000e+00 3.847500e-01 0.000000e+00
1.815000e-01 3.847500e-01 0.000000e+00
3.630000e-01 3.847500e-01 0.000000e+00
5.445000e-01 3.847500e-01 0.000000e+00
7.260000e-01 3.847500e-01 0.000000e+00
0.000000e+00 5.130000e-01 0.000000e+00
1.815000e-01 5.130000e-01 0.000000e+00
3.630000e-01 5.130000e-01 0.000000e+00
5.445000e-01 5.130000e-01 0.000000e+00
7.260000e-01 5.130000e-01 0.000000e+00
7.260000e-01 0.000000e+00 0.000000e+00
9.075000e-01 0.000000e+00 0.000000e+00
1.089000e+00 0.000000e+00 0.000000e+00
1.270500e+00 0.000000e+00 0.000000e+00
1.452000e+00 0.000000e+00 0.000000e+00
7.260000e-01 1.282500e-01 0.000000e+00
9.075000e-01 1.282500e-01 0.000000e+00
1.089000e+00 1.282500e-01 0.000000e+00
1.270500e+00 1.282500e-01 0.000000e+00
1.452000e+00 1.282500e-01 0.000000e+00
7.260000e-01 2.565000e-01 0.000000e+00
9.075000e-01 2.565000e-01 0.000000e+00
1.089000e+00 2.565000e-01 0.000000e+00
1.270500e+00 2.565000e-01 0.000000e+00
1.452000e+00 2.565000e-01 0.000000e+00
7.260000e-01 3.847500e-01 0.000000e+00
9.075000e-01 3.847500e-01 0.000000e+00
1.089000e+00 3.847500e-01 0.000000e+00
1.270500e+00 3.847500e-01 0.000000e+00
1.452000e+00 3.847500e-01 0.000000e+00
7.260000e-01 5.130000e-01 0.000000e+00
9.075000e-01 5.130000e-01 0.000000e+00
1.089000e+00 5.130000e-01 0.000000e+00
1.270500e+00 5.130000e-01 0.000000e+00
1.452000e+00 5.130000e-01 0.000000e+00
1.452000e+00 0.000000e+00 0.000000e+00
1.633500e+00 0.000000e+00 0.000000e+00
1.815000e+00 0.000000e+00 0.000000e+00
1.996500e+00 0.000000e+00 0.000000e+00
2.178000e+00 0.000000e+00 0.000000e+00
1.452000e+00 1.282500e-01 0.000000e+00
1.633500e+00 1.282500e-01 0.000000e+00
1.815000e+00 1.282500e-01 0.000000e+00
1.996500e+00 1.282500e-01 0.000000e+00
2.178000e+00 1.282500e-01 0.000000e+00
1.452000e+00 2.565000e-01 0.000000e+00
1.633500e+00 2.565000e-01 0.000000e+00
1.815000e+00 2.565000e-01 0.000000e+00
1.996500e+00 2.565000e-01 0.000000e+00
2.178000e+00 2.565000e-01 0.000000e+00
1.452000e+00 3.847500e-01 0.000000e+00
1.633500e+00 3.847500e-01 0.000000e+00
1.815000e+00 3.847500e-01 0.000000e+00
1.996500e+00 3.847500e-01 0.000000e+00
2.178000e+00 3.847500e-01 0.000000e+00
1.452000e+00 5.130000e-01 0.000000e+00
1.633500e+00 5.130000e-01 0.000000e+00
1.815000e+00 5.130000e-01 0.000000e+00
1.996500e+00 5.130000e-01 0.000000e+00
2.178000e+00 5.130000e-01 0.000000e+00
2.178000e+00 0.000000e+00 0.000000e+00
2.359500e+00 0.000000e+00 0.000000e+00
2.541000e+00 0.000000e+00 0.000000e+00
2.722500e+00 0.000000e+00 0.000000e+00
2.904000e+00 0.000000e+00 0.000000e+00
2.178000e+00 1.282500e-01 0.000000e+00
2.359500e+00 1.282500e-01 0.000000e+00
2.541000e+00 1.282500e-01 0.000000e+00
2.722500e+00 1.282500e-01 0.000000e+00
2.904000e+00 1.282500e-01 0.000000e+00
2.178000e+00 2.565000e-01 0.000000e+00
2.359500e+00 2.565000e-01 0.000000e+00
2.541000e+00 2.565000e-01 0.000000e+00
2.722500e+00 2.565000e-01 0.000000e+00
2.904000e+00 2.565000e-01 0.000000e+00
2.178000e+00 3.847500e-01 0.000000e+00
2.359500e+00 3.847500e-01 0.000000e+00
2.541000e+00 3.847500e-01 0.000000e+00
2.722500e+00 3.847500e-01 0.000000e+00
2.904000e+00 3.847500e-01 0.000000e+00
2.178000e+00 5.130000e-01 0.000000e+00
2.359500e+00 5.130000e-01 0.000000e+00
2.541000e+00 5.130000e-01 0.000000e+00
2.722500e+00 5.130000e-01 0.000000e+00
2.904000e+00 5.130000e-01 0.000000e+00
2.904000e+00 0.000000e+00 0.000000e+00
3.085500e+00 0.000000e+00 0.000000e+00
3.267000e+00 0.000000e+00 0.000000e+00
3.448500e+00 0.000000e+00 0.000000e+00
3.630000e+00 0.000000e+00 0.000000e+00
2.904000e+00 1.282500e-01 0.000000e+00
3.085500e+00 1.282500e-01 0.000000e+00
3.267000e+00 1.282500e-01 0.000000e+00
3.448500e+00 1.282500e-01 0.000000e+00
3.630000e+00 1.282500e-01 0.000000e+00
2.904000e+00 2.565000e-01 0.000000e+00
3.085500e+00 2.565000e-01 0.000000e+00
3.267000e+00 2.565000e-01 0.000000e+00
3.448500e+00 2.565000e-01 0.000000e+00
3.630000e+00 2.565000e-01 0.000000e+00
2.904000e+00 3.847500e-01 0.000000e+00
3.085500e+00 3.847500e-01 0.000000e+00
3.267000e+00 3.847500e-01 0.000000e+00
3.448500e+00 3.847500e-01 0.000000e+00
3.630000e+00 3.847500e-01 0.000000e+00
2.904000e+00 5.130000e-01 0.000000e+00
[...]
<PointData>
<DataArray type="Float32" Name="V1" format="ascii">
0.000000e+00
0.000000e+00
0.000000e+00
0.000000e+00
0.000000e+00
1.264110e-02
1.098820e-02
9.657980e-03
8.650420e-03
7.965540e-03
2.028400e-02
1.815880e-02
1.638680e-02
1.496800e-02
1.390230e-02
2.292870e-02
2.151190e-02
2.018660e-02
1.895270e-02
1.781030e-02
2.057510e-02
2.104740e-02
2.105720e-02
2.060460e-02
1.968960e-02
0.000000e+00
0.000000e+00
0.000000e+00
0.000000e+00
0.000000e+00
7.965540e-03
6.887500e-03
6.078740e-03
5.539250e-03
5.269040e-03
1.390230e-02
1.227220e-02
1.095770e-02
9.958760e-03
9.275460e-03
1.781030e-02
1.615410e-02
1.463680e-02
1.325850e-02
1.201930e-02
1.968960e-02
1.853320e-02
1.711620e-02
1.543860e-02
1.350040e-02
0.000000e+00
0.000000e+00
0.000000e+00
0.000000e+00
0.000000e+00
5.269040e-03
4.789090e-03
4.655520e-03
4.868340e-03
5.427540e-03
9.275460e-03
8.229840e-03
7.723580e-03
7.756680e-03
8.329140e-03
1.201930e-02
1.032220e-02
9.204160e-03
8.665010e-03
8.704780e-03
1.350040e-02
1.106630e-02
9.097280e-03
7.593340e-03
6.554480e-03
0.000000e+00
0.000000e+00
0.000000e+00
0.000000e+00
0.000000e+00
5.427540e-03
4.244380e-03
3.318360e-03
2.649480e-03
2.237740e-03
8.329140e-03
5.433220e-03
2.827690e-03
5.125470e-04
-1.512220e-03
8.704780e-03
3.566530e-03
-1.471990e-03
-6.410790e-03
-1.124990e-02
6.554480e-03
-1.355690e-03
-9.580700e-03
-1.812050e-02
-2.697520e-02
0.000000e+00
0.000000e+00
0.000000e+00
0.000000e+00
0.000000e+00
2.237740e-03
-7.498020e-03
-1.819130e-02
-2.984220e-02
-4.245050e-02
-1.512220e-03
-1.765330e-02
-3.423290e-02
-5.125100e-02
-6.870770e-02
-1.124990e-02
-3.046580e-02
-4.812460e-02
-6.422650e-02
-7.877140e-02
-2.697520e-02
-4.593550e-02
-5.986660e-02
-6.876870e-02
-7.264180e-02
0.000000e+00
0.000000e+00
0.000000e+00
0.000000e+00
0.000000e+00
-4.245050e-02
-3.918610e-02
-3.505310e-02
-3.005150e-02
-2.418130e-02
-6.870770e-02
-6.283650e-02
-5.552650e-02
-4.677770e-02
-3.659020e-02
-7.877140e-02
-7.095110e-02
-6.142020e-02
-5.017860e-02
-3.722650e-02
-7.264180e-02
-6.352990e-02
-5.273410e-02
-4.025420e-02
-2.609040e-02
0.000000e+00
0.000000e+00
0.000000e+00
0.000000e+00
0.000000e+00
-2.418130e-02
-1.955130e-02
-1.506510e-02
-1.072250e-02
-6.523740e-03
-3.659020e-02
-2.968420e-02
-2.294670e-02
-1.637760e-02
-9.976960e-03
-3.722650e-02
-3.039870e-02
-2.364490e-02
-1.696520e-02
-1.035970e-02
-2.609040e-02
-2.169470e-02
-1.715970e-02
-1.248540e-02
-7.671850e-03
0.000000e+00
0.000000e+00
0.000000e+00
0.000000e+00
0.000000e+00
-6.523740e-03
-1.492840e-03
2.164700e-03
4.448900e-03
5.359750e-03
-9.976960e-03
-1.981430e-03
3.894220e-03
7.649970e-03
9.285850e-03
-1.035970e-02
-1.465760e-03
5.188540e-03
9.603220e-03
1.177830e-02
-7.671850e-03
5.416540e-05
6.047660e-03
1.030860e-02
1.283710e-02
0.000000e+00
0.000000e+00
0.000000e+00
0.000000e+00
0.000000e+00
5.359750e-03
6.440670e-03
7.396050e-03
8.225890e-03
8.930190e-03
9.285850e-03
1.102210e-02
1.255750e-02
1.389190e-02
1.502540e-02
1.177830e-02
1.374440e-02
1.548430e-02
1.699810e-02
1.828560e-02
1.283710e-02
1.460740e-02
1.617650e-02
1.754430e-02
1.871090e-02
0.000000e+00
0.000000e+00
0.000000e+00
0.000000e+00
0.000000e+00
8.930190e-03
9.594500e-03
1.027750e-02
1.097910e-02
1.169940e-02
1.502540e-02
1.628080e-02
1.748140e-02
1.862720e-02
1.971830e-02
1.828560e-02
2.005880e-02
2.161170e-02
2.294430e-02
2.405660e-02
1.871090e-02
2.092870e-02
2.266850e-02
2.393040e-02
2.471440e-02
2.057510e-02
2.104740e-02
2.105720e-02
2.060460e-02
1.968960e-02
2.078850e-02
2.093330e-02
2.083250e-02
2.048610e-02
1.989420e-02
2.103660e-02
2.091510e-02
2.070280e-02
2.039980e-02
2.000610e-02
2.131930e-02
2.099270e-02
2.066820e-02
2.034570e-02
2.002540e-02
2.163650e-02
2.116610e-02
2.072850e-02
2.032380e-02
1.995210e-02
1.968960e-02
1.853320e-02
1.711620e-02
1.543860e-02
1.350040e-02
1.989420e-02
1.910780e-02
1.790620e-02
1.628950e-02
1.425760e-02
2.000610e-02
1.945940e-02
1.845180e-02
1.698330e-02
1.505400e-02
2.002540e-02
1.958790e-02
1.875280e-02
1.752000e-02
1.588950e-02
1.995210e-02
1.949350e-02
1.880930e-02
1.789950e-02
1.676420e-02
1.350040e-02
1.106630e-02
9.097280e-03
7.593340e-03
6.554480e-03
1.425760e-02
1.105090e-02
8.799890e-03
7.504730e-03
7.165380e-03
1.505400e-02
1.090410e-02
8.543770e-03
7.973100e-03
9.192060e-03
1.588950e-02
1.062590e-02
8.328910e-03
8.998440e-03
1.263450e-02
1.676420e-02
1.021640e-02
8.155310e-03
1.058080e-02
1.749280e-02
6.554480e-03
-1.355690e-03
-9.580700e-03
-1.812050e-02
-2.697520e-02
7.165380e-03
-4.238800e-03
-1.443610e-02
-2.342660e-02
-3.121020e-02
9.192060e-03
-4.841610e-03
-1.624370e-02
-2.501430e-02
-3.115320e-02
1.263450e-02
-3.164120e-03
-1.500350e-02
-2.288350e-02
-2.680430e-02
1.749280e-02
7.936550e-04
-1.071540e-02
-1.703440e-02
-1.816330e-02
-2.697520e-02
-4.593550e-02
-5.986660e-02
-6.876870e-02
-7.264180e-02
-3.121020e-02
-4.538380e-02
-5.693250e-02
-6.585610e-02
-7.215480e-02
-3.115320e-02
-3.973450e-02
-4.756720e-02
-5.465140e-02
-6.098710e-02
-2.680430e-02
-2.898740e-02
-3.177090e-02
-3.515470e-02
-3.913880e-02
-1.816330e-02
-1.314260e-02
-9.543470e-03
-7.365890e-03
-6.609870e-03
-7.264180e-02
-6.352990e-02
-5.273410e-02
-4.025420e-02
-2.609040e-02
-7.215480e-02
-6.272990e-02
-5.134550e-02
-3.800190e-02
-2.269880e-02
-6.098710e-02
-5.249780e-02
-4.223090e-02
-3.018650e-02
-1.636450e-02
-3.913880e-02
-3.283380e-02
-2.539020e-02
-1.680800e-02
-7.087400e-03
-6.609870e-03
-3.737720e-03
-8.232950e-04
2.133410e-03
5.132400e-03
-2.609040e-02
-2.169470e-02
-1.715970e-02
-1.248540e-02
-7.671850e-03
-2.269880e-02
-1.747220e-02
-1.303180e-02
-9.377840e-03
-6.510140e-03
-1.636450e-02
-1.105850e-02
-7.213000e-03
-4.827870e-03
-3.903140e-03
-7.087400e-03
-2.453760e-03
2.968770e-04
1.164520e-03
1.491550e-04
5.132400e-03
8.342140e-03
9.497770e-03
8.599310e-03
5.646750e-03
-7.671850e-03
5.416540e-05
6.047660e-03
1.030860e-02
1.283710e-02
-6.510140e-03
1.777070e-03
8.003160e-03
1.216810e-02
1.427200e-02
-3.903140e-03
4.186080e-03
1.014270e-02
1.396690e-02
1.565850e-02
1.491550e-04
7.281200e-03
1.246640e-02
1.570480e-02
1.699640e-02
5.646750e-03
1.106240e-02
1.497420e-02
1.738200e-02
1.828600e-02
1.283710e-02
1.460740e-02
1.617650e-02
1.754430e-02
1.871090e-02
1.427200e-02
1.560990e-02
1.681730e-02
1.789450e-02
1.884120e-02
1.565850e-02
1.661500e-02
1.749590e-02
1.830100e-02
1.903030e-02
1.699640e-02
1.762300e-02
1.821210e-02
1.876380e-02
1.927820e-02
1.828600e-02
1.863370e-02
1.896610e-02
1.928310e-02
1.958480e-02
1.871090e-02
2.092870e-02
2.266850e-02
2.393040e-02
2.471440e-02
1.884120e-02
2.122780e-02
2.303360e-02
2.425880e-02
2.490340e-02
1.903030e-02
2.151320e-02
2.332560e-02
2.446760e-02
2.493920e-02
1.927820e-02
2.178490e-02
2.354440e-02
2.455680e-02
2.482200e-02
1.958480e-02
2.204290e-02
2.369010e-02
2.452630e-02
2.455160e-02
2.163650e-02
2.116610e-02
2.072850e-02
2.032380e-02
1.995210e-02
2.197900e-02
2.150160e-02
2.109410e-02
2.075670e-02
2.048920e-02
2.233590e-02
2.188190e-02
2.152050e-02
2.125170e-02
2.107530e-02
2.270730e-02
2.230720e-02
2.200770e-02
2.180880e-02
2.171040e-02
2.309330e-02
2.277740e-02
2.255560e-02
2.242800e-02
2.239440e-02
1.995210e-02
1.949350e-02
1.880930e-02
1.789950e-02
1.676420e-02
2.048920e-02
1.974910e-02
1.912720e-02
1.862360e-02
1.823820e-02
2.107530e-02
2.012100e-02
1.955280e-02
1.937060e-02
1.957450e-02
2.171040e-02
2.060930e-02
2.008610e-02
2.014070e-02
2.077320e-02
2.239440e-02
2.121400e-02
2.072720e-02
2.093390e-02
2.183420e-02
1.676420e-02
1.021640e-02
8.155310e-03
1.058080e-02
1.749280e-02
1.823820e-02
1.167510e-02
9.813800e-03
1.265430e-02
2.019660e-02
1.957450e-02
1.364790e-02
1.210350e-02
1.494150e-02
2.216170e-02
2.077320e-02
1.613480e-02
1.502450e-02
1.744220e-02
2.338800e-02
2.183420e-02
1.913590e-02
1.857670e-02
2.015650e-02
2.387540e-02
1.749280e-02
7.936550e-04
-1.071540e-02
-1.703440e-02
-1.816330e-02
2.019660e-02
8.735810e-03
2.961600e-04
-5.122310e-03
-7.519600e-03
2.216170e-02
1.571840e-02
1.048820e-02
6.471150e-03
3.667170e-03
2.338800e-02
2.174150e-02
1.986080e-02
1.774600e-02
1.539700e-02
2.387540e-02
2.680500e-02
2.841390e-02
2.870220e-02
2.766980e-02
-1.816330e-02
-1.314260e-02
-9.543470e-03
-7.365890e-03
-6.609870e-03
-7.519600e-03
3.886140e-03
1.373130e-02
2.201590e-02
2.873990e-02
3.667170e-03
1.856500e-02
3.188510e-02
4.362760e-02
5.379240e-02
1.539700e-02
3.089390e-02
4.491800e-02
5.746930e-02
6.854760e-02
2.766980e-02
4.087290e-02
5.283000e-02
6.354090e-02
7.300560e-02
-6.609870e-03
-3.737720e-03
-8.232950e-04
2.133410e-03
5.132400e-03
2.873990e-02
2.307870e-02
1.878330e-02
1.585390e-02
1.429030e-02
5.379240e-02
4.321800e-02
3.459030e-02
2.790920e-02
2.317470e-02
6.854760e-02
5.668040e-02
4.659760e-02
3.829940e-02
3.178560e-02
7.300560e-02
6.346570e-02
5.480530e-02
4.702440e-02
4.012310e-02
5.132400e-03
8.342140e-03
9.497770e-03
8.599310e-03
5.646750e-03
1.429030e-02
1.621960e-02
1.631940e-02
1.458970e-02
1.103050e-02
2.317470e-02
2.356500e-02
2.247040e-02
1.989070e-02
1.582610e-02
3.178560e-02
3.037850e-02
2.795070e-02
2.450230e-02
2.003340e-02
4.012310e-02
3.665990e-02
3.276040e-02
2.842460e-02
2.365240e-02
5.646750e-03
1.106240e-02
1.497420e-02
1.738200e-02
1.828600e-02
1.103050e-02
1.445280e-02
1.698000e-02
1.861200e-02
1.934890e-02
1.582610e-02
1.756770e-02
1.891140e-02
1.985690e-02
2.040430e-02
2.003340e-02
2.040720e-02
2.076840e-02
2.111670e-02
2.145230e-02
2.365240e-02
2.297130e-02
2.255100e-02
2.239150e-02
2.249280e-02
1.828600e-02
1.863370e-02
1.896610e-02
1.928310e-02
1.958480e-02
1.934890e-02
1.970960e-02
1.998500e-02
2.017500e-02
2.027960e-02
2.040430e-02
2.075030e-02
2.096120e-02
2.103680e-02
2.097720e-02
2.145230e-02
2.175580e-02
2.189460e-02
2.186850e-02
2.167760e-02
2.249280e-02
2.272610e-02
2.278520e-02
2.267010e-02
2.238090e-02
1.958480e-02
2.204290e-02
2.369010e-02
2.452630e-02
2.455160e-02
2.027960e-02
2.237090e-02
2.378380e-02
2.451810e-02
2.457390e-02
2.097720e-02
2.270820e-02
2.388940e-02
2.452060e-02
2.460190e-02
2.167760e-02
2.305480e-02
2.400690e-02
2.453390e-02
2.463570e-02
2.238090e-02
2.341070e-02
2.413640e-02
2.455800e-02
2.467540e-02
2.309330e-02
2.277740e-02
2.255560e-02
2.242800e-02
2.239440e-02
2.348320e-02
2.320770e-02
2.303900e-02
2.297690e-02
2.302150e-02
2.386930e-02
2.363110e-02
2.350980e-02
2.350550e-02
2.361800e-02
2.425160e-02
2.404760e-02
2.396830e-02
2.401370e-02
2.418390e-02
2.463000e-02
2.445710e-02
2.441430e-02
2.450170e-02
2.471920e-02
2.239440e-02
2.121400e-02
2.072720e-02
2.093390e-02
2.183420e-02
2.302150e-02
2.199790e-02
2.160690e-02
2.184850e-02
2.272280e-02
2.361800e-02
2.278400e-02
2.250340e-02
2.277620e-02
2.360230e-02
2.418390e-02
2.357230e-02
2.341670e-02
2.371680e-02
2.447290e-02
2.471920e-02
2.436290e-02
2.434670e-02
2.467050e-02
2.533440e-02
2.183420e-02
1.913590e-02
1.857670e-02
2.015650e-02
2.387540e-02
2.272280e-02
2.129980e-02
2.131530e-02
2.276920e-02
2.566160e-02
2.360230e-02
2.312210e-02
2.356850e-02
2.494130e-02
2.724060e-02
2.447290e-02
2.460290e-02
2.533610e-02
2.667270e-02
2.861250e-02
2.533440e-02
2.574200e-02
2.661830e-02
2.796340e-02
2.977720e-02
2.387540e-02
2.680500e-02
2.841390e-02
2.870220e-02
2.766980e-02
2.566160e-02
2.929170e-02
3.219550e-02
3.437290e-02
3.582390e-02
2.724060e-02
3.121710e-02
3.484230e-02
3.811620e-02
4.103880e-02
2.861250e-02
3.258100e-02
3.635420e-02
3.993210e-02
4.331460e-02
2.977720e-02
3.338360e-02
3.673140e-02
3.982060e-02
4.265130e-02
2.766980e-02
4.087290e-02
5.283000e-02
6.354090e-02
7.300560e-02
3.582390e-02
4.723700e-02
5.737810e-02
6.624720e-02
7.384420e-02
4.103880e-02
5.064870e-02
5.900380e-02
6.610420e-02
7.194990e-02
4.331460e-02
5.110800e-02
5.770710e-02
6.311200e-02
6.732260e-02
4.265130e-02
4.861500e-02
5.348800e-02
5.727050e-02
5.996240e-02
7.300560e-02
6.346570e-02
5.480530e-02
4.702440e-02
4.012310e-02
7.384420e-02
6.488340e-02
5.664760e-02
4.913690e-02
4.235120e-02
7.194990e-02
6.419150e-02
5.697970e-02
5.031440e-02
4.419570e-02
6.732260e-02
6.139000e-02
5.580150e-02
5.055710e-02
4.565670e-02
5.996240e-02
5.647890e-02
5.311310e-02
4.986480e-02
4.673420e-02
4.012310e-02
3.665990e-02
3.276040e-02
2.842460e-02
2.365240e-02
4.235120e-02
3.828240e-02
3.415430e-02
2.996700e-02
2.572040e-02
4.419570e-02
3.974280e-02
3.549110e-02
3.144060e-02
2.759140e-02
4.565670e-02
4.104120e-02
3.677080e-02
3.284550e-02
2.926540e-02
4.673420e-02
4.217750e-02
3.799330e-02
3.418160e-02
3.074240e-02
2.365240e-02
2.297130e-02
2.255100e-02
2.239150e-02
2.249280e-02
2.572040e-02
2.490120e-02
2.428220e-02
2.386330e-02
2.364460e-02
2.759140e-02
2.662220e-02
2.581580e-02
2.517220e-02
2.469150e-02
2.926540e-02
2.813430e-02
2.715200e-02
2.631840e-02
2.563350e-02
3.074240e-02
2.943750e-02
2.829060e-02
2.730160e-02
2.647070e-02
2.249280e-02
2.272610e-02
2.278520e-02
2.267010e-02
2.238090e-02
2.364460e-02
2.364220e-02
2.352700e-02
2.329920e-02
2.295870e-02
2.469150e-02
2.447750e-02
2.420910e-02
2.388620e-02
2.350870e-02
2.563350e-02
2.523220e-02
2.483140e-02
2.443090e-02
2.403090e-02
2.647070e-02
2.590630e-02
2.539390e-02
2.493360e-02
2.452530e-02
2.238090e-02
2.341070e-02
2.413640e-02
2.455800e-02
2.467540e-02
2.295870e-02
2.381290e-02
2.439330e-02
2.469990e-02
2.473260e-02
2.350870e-02
2.419910e-02
2.464360e-02
2.484210e-02
2.479480e-02
2.403090e-02
2.456930e-02
2.488720e-02
2.498470e-02
2.486180e-02
2.452530e-02
2.492340e-02
2.512420e-02
2.512760e-02
2.493380e-02
2.463000e-02
2.445710e-02
2.441430e-02
2.450170e-02
2.471920e-02
2.499690e-02
2.486990e-02
2.486410e-02
2.497940e-02
2.521600e-02
2.534870e-02
2.526800e-02
2.529760e-02
2.543740e-02
2.568750e-02
2.568540e-02
2.565150e-02
2.571500e-02
2.587570e-02
2.613370e-02
2.600690e-02
2.602040e-02
2.611610e-02
2.629420e-02
2.655460e-02
2.471920e-02
2.436290e-02
2.434670e-02
2.467050e-02
2.533440e-02
2.521600e-02
2.502540e-02
2.511440e-02
2.548300e-02
2.613120e-02
2.568750e-02
2.563050e-02
2.580410e-02
2.620840e-02
2.684330e-02
2.613370e-02
2.617810e-02
2.641580e-02
2.684660e-02
2.747060e-02
2.655460e-02
2.666830e-02
2.694930e-02
2.739750e-02
2.801300e-02
2.533440e-02
2.574200e-02
2.661830e-02
2.796340e-02
2.977720e-02
2.613120e-02
2.674780e-02
2.769170e-02
2.896300e-02
3.056160e-02
2.684330e-02
2.762250e-02
2.861420e-02
2.981840e-02
3.123500e-02
2.747060e-02
2.836610e-02
2.938580e-02
3.052950e-02
3.179740e-02
2.801300e-02
2.897860e-02
3.000640e-02
3.109640e-02
3.224880e-02
2.977720e-02
3.338360e-02
3.673140e-02
3.982060e-02
4.265130e-02
3.056160e-02
3.394390e-02
3.703270e-02
3.982800e-02
4.232980e-02
3.123500e-02
3.431390e-02
3.710340e-02
3.960340e-02
4.181390e-02
3.179740e-02
3.449380e-02
3.694360e-02
3.914690e-02
4.110370e-02
3.224880e-02
3.448340e-02
3.655330e-02
3.845850e-02
4.019910e-02
4.265130e-02
4.861500e-02
5.348800e-02
5.727050e-02
5.996240e-02
4.232980e-02
4.693620e-02
5.071990e-02
5.368120e-02
5.581980e-02
4.181390e-02
4.533470e-02
4.823470e-02
5.051380e-02
5.217210e-02
4.110370e-02
4.381060e-02
4.603220e-02
4.776840e-02
4.901940e-02
4.019910e-02
4.236380e-02
4.411250e-02
4.544500e-02
4.636150e-02
5.996240e-02
5.647890e-02
5.311310e-02
4.986480e-02
4.673420e-02
5.581980e-02
5.317370e-02
5.051290e-02
4.783760e-02
4.514760e-02
5.217210e-02
5.021820e-02
4.816880e-02
4.602400e-02
4.378370e-02
4.901940e-02
4.761250e-02
4.608070e-02
4.442400e-02
4.264240e-02
4.636150e-02
4.535650e-02
4.424850e-02
4.303770e-02
4.172380e-02
4.673420e-02
4.217750e-02
3.799330e-02
3.418160e-02
3.074240e-02
4.514760e-02
4.119590e-02
3.761190e-02
3.439560e-02
3.154710e-02
4.378370e-02
4.041820e-02
3.737540e-02
3.465520e-02
3.225750e-02
4.264240e-02
3.984450e-02
3.728380e-02
3.496020e-02
3.287380e-02
4.172380e-02
3.947480e-02
3.733710e-02
3.531080e-02
3.339580e-02
3.074240e-02
2.943750e-02
2.829060e-02
2.730160e-02
2.647070e-02
3.154710e-02
3.027320e-02
2.911690e-02
2.807800e-02
2.715660e-02
3.225750e-02
3.096650e-02
2.978120e-02
2.870160e-02
2.772780e-02
3.287380e-02
3.151730e-02
3.028350e-02
2.917250e-02
2.818410e-02
3.339580e-02
3.192560e-02
3.062390e-02
2.949050e-02
2.852560e-02
2.647070e-02
2.590630e-02
2.539390e-02
2.493360e-02
2.452530e-02
2.715660e-02
2.653970e-02
2.598840e-02
2.550290e-02
2.508310e-02
2.772780e-02
2.708200e-02
2.650890e-02
2.600850e-02
2.558080e-02
2.818410e-02
2.753330e-02
2.695550e-02
2.645050e-02
2.601850e-02
2.852560e-02
2.789360e-02
2.732800e-02
2.682890e-02
2.639620e-02
2.452530e-02
2.492340e-02
2.512420e-02
2.512760e-02
2.493380e-02
2.508310e-02
2.526490e-02
2.532010e-02
2.524880e-02
2.505090e-02
2.558080e-02
2.557120e-02
2.550010e-02
2.536760e-02
2.517370e-02
2.601850e-02
2.584230e-02
2.566420e-02
2.548420e-02
2.530230e-02
2.639620e-02
2.607830e-02
2.581240e-02
2.559850e-02
2.543650e-02
2.600690e-02
2.602040e-02
2.611610e-02
2.629420e-02
2.655460e-02
2.630990e-02
2.635970e-02
2.648160e-02
2.667560e-02
2.694180e-02
2.659390e-02
2.667630e-02
2.682140e-02
2.702920e-02
2.729970e-02
2.685910e-02
2.697030e-02
2.713560e-02
2.735500e-02
2.762850e-02
2.710540e-02
2.724160e-02
2.742410e-02
2.765290e-02
2.792800e-02
2.655460e-02
2.666830e-02
2.694930e-02
2.739750e-02
2.801300e-02
2.694180e-02
2.711120e-02
2.742310e-02
2.787740e-02
2.847430e-02
2.729970e-02
2.751540e-02
2.785020e-02
2.830390e-02
2.887670e-02
2.762850e-02
2.788110e-02
2.823060e-02
2.867700e-02
2.922020e-02
2.792800e-02
2.820830e-02
2.856450e-02
2.899670e-02
2.950480e-02
2.801300e-02
2.897860e-02
3.000640e-02
3.109640e-02
3.224880e-02
2.847430e-02
2.942260e-02
3.041490e-02
3.145130e-02
3.253170e-02
2.887670e-02
2.978940e-02
3.073260e-02
3.170620e-02
3.271010e-02
2.922020e-02
3.007920e-02
3.095950e-02
3.186110e-02
3.278400e-02
2.950480e-02
3.029170e-02
3.109550e-02
3.191600e-02
3.275340e-02
3.224880e-02
3.448340e-02
3.655330e-02
3.845850e-02
4.019910e-02
3.253170e-02
3.447450e-02
3.626190e-02
3.789390e-02
3.937050e-02
3.271010e-02
3.439640e-02
3.593770e-02
3.733400e-02
3.858530e-02
3.278400e-02
3.424890e-02
3.558050e-02
3.677880e-02
3.784370e-02
3.275340e-02
3.403220e-02
3.519050e-02
3.622830e-02
3.714550e-02
4.019910e-02
4.236380e-02
4.411250e-02
4.544500e-02
4.636150e-02
3.937050e-02
4.116990e-02
4.261070e-02
4.369290e-02
4.441630e-02
3.858530e-02
4.006710e-02
4.124440e-02
4.211730e-02
4.268570e-02
3.784370e-02
3.905510e-02
4.001330e-02
4.071820e-02
4.116970e-02
3.714550e-02
3.813420e-02
3.891760e-02
3.949560e-02
3.986830e-02
4.636150e-02
4.535650e-02
4.424850e-02
4.303770e-02
4.172380e-02
4.441630e-02
4.357390e-02
4.263130e-02
4.158830e-02
4.044510e-02
4.268570e-02
4.200150e-02
4.121870e-02
4.033750e-02
3.935770e-02
4.116970e-02
4.063910e-02
4.001090e-02
3.928510e-02
3.846170e-02
3.986830e-02
3.948680e-02
3.900780e-02
3.843120e-02
3.775710e-02
4.172380e-02
3.947480e-02
3.733710e-02
3.531080e-02
3.339580e-02
4.044510e-02
3.851400e-02
3.668920e-02
3.497050e-02
3.335790e-02
3.935770e-02
3.771110e-02
3.615590e-02
3.469210e-02
3.331960e-02
3.846170e-02
3.706610e-02
3.573740e-02
3.447570e-02
3.328090e-02
3.775710e-02
3.657890e-02
3.543370e-02
3.432130e-02
3.324190e-02
3.339580e-02
3.192560e-02
3.062390e-02
2.949050e-02
2.852560e-02
3.335790e-02
3.203760e-02
3.084760e-02
2.978780e-02
2.885820e-02
3.331960e-02
3.211870e-02
3.102130e-02
3.002720e-02
2.913660e-02
3.328090e-02
3.216890e-02
3.114490e-02
3.020890e-02
2.936100e-02
3.324190e-02
3.218810e-02
3.121840e-02
3.033280e-02
2.953120e-02
2.852560e-02
2.789360e-02
2.732800e-02
2.682890e-02
2.639620e-02
2.885820e-02
2.822040e-02
2.764600e-02
2.713490e-02
2.668710e-02
2.913660e-02
2.849660e-02
2.791630e-02
2.739590e-02
2.693530e-02
2.936100e-02
2.872200e-02
2.813890e-02
2.761180e-02
2.714070e-02
2.953120e-02
2.889660e-02
2.831380e-02
2.778270e-02
2.730320e-02
2.639620e-02
2.607830e-02
2.581240e-02
2.559850e-02
2.543650e-02
2.668710e-02
2.633020e-02
2.602520e-02
2.577190e-02
2.557050e-02
2.693530e-02
2.655120e-02
2.621650e-02
2.593140e-02
2.569580e-02
2.714070e-02
2.674110e-02
2.638650e-02
2.607700e-02
2.581250e-02
2.730320e-02
2.689990e-02
2.653500e-02
2.620850e-02
2.592040e-02
2.710540e-02
2.724160e-02
2.742410e-02
2.765290e-02
2.792800e-02
2.733260e-02
2.748650e-02
2.768060e-02
2.791480e-02
2.818930e-02
2.754220e-02
2.771130e-02
2.791450e-02
2.815190e-02
2.842340e-02
2.773410e-02
2.791600e-02
2.812600e-02
2.836400e-02
2.863010e-02