<?xml version="1.0"?>
<VTKFile type="UnstructuredGrid" version="0.1" byte_order="LittleEndian" compressor="vtkZLibDataCompressor">
<UnstructuredGrid>
<Piece NumberOfPoints="2500" NumberOfCells="1600">
<Points>
<DataArray type="Float32" NumberOfComponents="3" format="ascii">
-3.630000e+00 0.000000e+00 0.000000e+00
-3.448500e+00 0.000000e+00 0.000000e+00
-3.267000e+00 0.000000e+00 0.000000e+00
-3.085500e+00 0.000000e+00 0.000000e+00
-2.904000e+00 0.000000e+00 0.000000e+00
-3.630000e+00 1.282500e-01 0.000000e+00
-3.448500e+00 1.282500e-01 0.000000e+00
-3.267000e+00 1.282500e-01 0.000000e+00
-3.085500e+00 1.282500e-01 0.000000e+00
-2.904000e+00 1.282500e-01 0.000000e+00
-3.630000e+00 2.565000e-01 0.000000e+00
-3.448500e+00 2.565000e-01 0.000000e+00
-3.267000e+00 2.565000e-01 0.000000e+00
-3.085500e+00 2.565000e-01 0.000000e+00
-2.904000e+00 2.565000e-01 0.000000e+00
-3.630000e+00 3.847500e-01 0.000000e+00
-3.448500e+00 3.847500e-01 0.000000e+00
-3.267000e+00 3.847500e-01 0.000000e+00
-3.085500e+00 3.847500e-01 0.000000e+00
-2.904000e+00 3.847500e-01 0.000000e+00
-3.630000e+00 5.130000e-01 0.000000e+00
-3.448500e+00 5.130000e-01 0.000000e+00
-3.267000e+00 5.130000e-01 0.000000e+00
-3.085500e+00 5.130000e-01 0.000000e+00
-2.904000e+00 5.130000e-01 0.000000e+00
-2.904000e+00 0.000000e+00 0.000000e+00
-2.722500e+00 0.000000e+00 0.000000e+00
-2.541000e+00 0.000000e+00 0.000000e+00
-2.359500e+00 0.000000e+00 0.000000e+00
-2.178000e+00 0.000000e+00 0.000000e+00
-2.904000e+00 1.282500e-01 0.000000e+00
-2.722500e+00 1.282500e-01 0.000000e+00
-2.541000e+00 1.282500e-01 0.000000e+00
-2.359500e+00 1.282500e-01 0.000000e+00
-2.178000e+00 1.282500e-01 0.000000e+00
-2.904000e+00 2.565000e-01 0.000000e+00
-2.722500e+00 2.565000e-01 0.000000e+00
-2.541000e+00 2.565000e-01 0.000000e+00
-2.359500e+00 2.565000e-01 0.000000e+00
-2.178000e+00 2.565000e-01 0.000000e+00
-2.904000e+00 3.847500e-01 0.000000e+00
-2.722500e+00 3.847500e-01 0.000000e+00
-2.541000e+00 3.847500e-01 0.000000e+00
-2.359500e+00 3.847500e-01 0.000000e+00
-2.178000e+00 3.847500e-01 0.000000e+00
-2.904000e+00 5.130000e-01 0.000000e+00
-2.722500e+00 5.130000e-01 0.000000e+00
-2.541000e+00 5.130000e-01 0.000000e+00
-2.359500e+00 5.130000e-01 0.000000e+00
-2.178000e+00 5.130000e-01 0.000000e+00
-2.178000e+00 0.000000e+00 0.000000e+00
-1.996500e+00 0.000000e+00 0.000000e+00
-1.815000e+00 0.000000e+00 0.000000e+00
-1.633500e+00 0.000000e+00 0.000000e+00
-1.452000e+00 0.000000e+00 0.000000e+00
-2.178000e+00 1.282500e-01 0.000000e+00
-1.996500e+00 1.282500e-01 0.000000e+00
-1.815000e+00 1.282500e-01 0.000000e+00
-1.633500e+00 1.282500e-01 0.000000e+00
-1.452000e+00 1.282500e-01 0.000000e+00
-2.178000e+00 2.565000e-01 0.000000e+00
-1.996500e+00 2.565000e-01 0.000000e+00
-1.815000e+00 2.565000e-01 0.000000e+00
-1.633500e+00 2.565000e-01 0.000000e+00
-1.452000e+00 2.565000e-01 0.000000e+00
-2.178000e+00 3.847500e-01 0.000000e+00
-1.996500e+00 3.847500e-01 0.000000e+00
-1.815000e+00 3.847500e-01 0.000000e+00
-1.633500e+00 3.847500e-01 0.000000e+00
-1.452000e+00 3.847500e-01 0.000000e+00
-2.178000e+00 5.130000e-01 0.000000e+00
-1.996500e+00 5.130000e-01 0.000000e+00
-1.815000e+00 5.130000e-01 0.000000e+00
-1.633500e+00 5.130000e-01 0.000000e+00
-1.452000e+00 5.130000e-01 0.000000e+00
-1.452000e+00 0.000000e+00 0.000000e+00
-1.270500e+00 0.000000e+00 0.000000e+00
-1.089000e+00 0.000000e+00 0.000000e+00
-9.075000e-01 0.000000e+00 0.000000e+00
-7.260000e-01 0.000000e+00 0.000000e+00
-1.452000e+00 1.282500e-01 0.000000e+00
-1.270500e+00 1.282500e-01 0.000000e+00
-1.089000e+00 1.282500e-01 0.000000e+00
-9.075000e-01 1.282500e-01 0.000000e+00
-7.260000e-01 1.282500e-01 0.000000e+00
-1.452000e+00 2.565000e-01 0.000000e+00
-1.270500e+00 2.565000e-01 0.000000e+00
-1.089000e+00 2.565000e-01 0.000000e+00
-9.075000e-01 2.565000e-01 0.000000e+00
-7.260000e-01 2.565000e-01 0.000000e+00
-1.452000e+00 3.847500e-01 0.000000e+00
-1.270500e+00 3.847500e-01 0.000000e+00
-1.089000e+00 3.847500e-01 0.000000e+00
-9.075000e-01 3.847500e-01 0.000000e+00
-7.260000e-01 3.847500e-01 0.000000e+00
-1.452000e+00 5.130000e-01 0.000000e+00
-1.270500e+00 5.130000e-01 0.000000e+00
-1.089000e+00 5.130000e-01 0.000000e+00
-9.075000e-01 5.130000e-01 0.000000e+00
-7.260000e-01 5.130000e-01 0.000000e+00
-7.260000e-01 0.000000e+00 0.000000e+00
-5.445000e-01 0.000000e+00 0.000000e+00
-3.630000e-01 0.000000e+00 0.000000e+00
-1.815000e-01 0.000000e+00 0.000000e+00
0.000000e+00 0.000000e+00 0.000000e+00
-7.260000e-01 1.282500e-01 0.000000e+00
-5.445000e-01 1.282500e-01 0.000000e+00
-3.630000e-01 1.282500e-01 0.000000e+00
-1.815000e-01 1.282500e-01 0.000000e+00
0.000000e+00 1.282500e-01 0.000000e+00
-7.260000e-01 2.565000e-01 0.000000e+00
-5.445000e-01 2.565000e-01 0.000000e+00
-3.630000e-01 2.565000e-01 0.000000e+00
-1.815000e-01 2.565000e-01 0.000000e+00
0.000000e+00 2.565000e-01 0.000000e+00
-7.260000e-01 3.847500e-01 0.000000e+00
-5.445000e-01 3.847500e-01 0.000000e+00
-3.630000e-01 3.847500e-01 0.000000e+00
-1.815000e-01 3.847500e-01 0.000000e+00
0.000000e+00 3.847500e-01 0.000000e+00
-7.260000e-01 5.130000e-01 0.000000e+00
-5.445000e-01 5.130000e-01 0.000000e+00
-3.630000e-01 5.130000e-01 0.000000e+00
-1.815000e-01 5.130000e-01 0.000000e+00
0.000000e+00 5.130000e-01 0.000000e+00
0.000000e+00 0.000000e+00 0.000000e+00
1.815000e-01 0.000000e+00 0.000000e+00
3.630000e-01 0.000000e+00 0.000000e+00
5.445000e-01 0.000000e+00 0.000000e+00
7.260000e-01 0.000000e+00 0.000000e+00
0.000000e+00 1.282500e-01 0.000000e+00
1.815000e-01 1.282500e-01 0.000000e+00
3.630000e-01 1.282500e-01 0.000000e+00
5.445000e-01 1.282500e-01 0.000000e+00
7.260000e-01 1.282500e-01 0.000000e+00
0.000000e+00 2.565000e-01 0.000000e+00
1.815000e-01 2.565000e-01 0.000000e+00
3.630000e-01 2.565000e-01 0.000000e+00
5.445000e-01 2.565000e-01 0.000000e+00
7.260000e-01 2.565000e-01 0.000000e+00
0.000000e+00 3.847500e-01 0.000000e+00
1.815000e-01 3.847500e-01 0.000000e+00
3.630000e-01 3.847500e-01 0.000000e+00
5.445000e-01 3.847500e-01 0.000000e+00
7.260000e-01 3.847500e-01 0.000000e+00
0.000000e+00 5.130000e-01 0.000000e+00
1.815000e-01 5.130000e-01 0.000000e+00
3.630000e-01 5.130000e-01 0.000000e+00
5.445000e-01 5.130000e-01 0.000000e+00
7.260000e-01 5.130000e-01 0.000000e+00
7.260000e-01 0.000000e+00 0.000000e+00
9.075000e-01 0.000000e+00 0.000000e+00
1.089000e+00 0.000000e+00 0.000000e+00
1.270500e+00 0.000000e+00 0.000000e+00
1.452000e+00 0.000000e+00 0.000000e+00
7.260000e-01 1.282500e-01 0.000000e+00
9.075000e-01 1.282500e-01 0.000000e+00
1.089000e+00 1.282500e-01 0.000000e+00
1.270500e+00 1.282500e-01 0.000000e+00
1.452000e+00 1.282500e-01 0.000000e+00
7.260000e-01 2.565000e-01 0.000000e+00
9.075000e-01 2.565000e-01 0.000000e+00
1.089000e+00 2.565000e-01 0.000000e+00
1.270500e+00 2.565000e-01 0.000000e+00
1.452000e+00 2.565000e-01 0.000000e+00
7.260000e-01 3.847500e-01 0.000000e+00
9.075000e-01 3.847500e-01 0.000000e+00
1.089000e+00 3.847500e-01 0.000000e+00
1.270500e+00 3.847500e-01 0.000000e+00
1.452000e+00 3.847500e-01 0.000000e+00
7.260000e-01 5.130000e-01 0.000000e+00
9.075000e-01 5.130000e-01 0.000000e+00
1.089000e+00 5.130000e-01 0.000000e+00
1.270500e+00 5.130000e-01 0.000000e+00
1.452000e+00 5.130000e-01 0.000000e+00
1.452000e+00 0.000000e+00 0.000000e+00
1.633500e+00 0.000000e+00 0.000000e+00
1.815000e+00 0.000000e+00 0.000000e+00
1.996500e+00 0.000000e+00 0.000000e+00
2.178000e+00 0.000000e+00 0.000000e+00
1.452000e+00 1.282500e-01 0.000000e+00
1.633500e+00 1.282500e-01 0.000000e+00
1.815000e+00 1.282500e-01 0.000000e+00
1.996500e+00 1.282500e-01 0.000000e+00
2.178000e+00 1.282500e-01 0.000000e+00
1.452000e+00 2.565000e-01 0.000000e+00
1.633500e+00 2.565000e-01 0.000000e+00
1.815000e+00 2.565000e-01 0.000000e+00
1.996500e+00 2.565000e-01 0.000000e+00
2.178000e+00 2.565000e-01 0.000000e+00
1.452000e+00 3.847500e-01 0.000000e+00
1.633500e+00 3.847500e-01 0.000000e+00
1.815000e+00 3.847500e-01 0.000000e+00
1.996500e+00 3.847500e-01 0.000000e+00
2.178000e+00 3.847500e-01 0.000000e+00
1.452000e+00 5.130000e-01 0.000000e+00
1.633500e+00 5.130000e-01 0.000000e+00
1.815000e+00 5.130000e-01 0.000000e+00
1.996500e+00 5.130000e-01 0.000000e+00
2.178000e+00 5.130000e-01 0.000000e+00
2.178000e+00 0.000000e+00 0.000000e+00
2.359500e+00 0.000000e+00 0.000000e+00
2.541000e+00 0.000000e+00 0.000000e+00
2.722500e+00 0.000000e+00 0.000000e+00
2.904000e+00 0.000000e+00 0.000000e+00
2.178000e+00 1.282500e-01 0.000000e+00
2.359500e+00 1.282500e-01 0.000000e+00
2.541000e+00 1.282500e-01 0.000000e+00
2.722500e+00 1.282500e-01 0.000000e+00
2.904000e+00 1.282500e-01 0.000000e+00
2.178000e+00 2.565000e-01 0.000000e+00
2.359500e+00 2.565000e-01 0.000000e+00
2.541000e+00 2.565000e-01 0.000000e+00
2.722500e+00 2.565000e-01 0.000000e+00
2.904000e+00 2.565000e-01 0.000000e+00
2.178000e+00 3.847500e-01 0.000000e+00
2.359500e+00 3.847500e-01 0.000000e+00
2.541000e+00 3.847500e-01 0.000000e+00
2.722500e+00 3.847500e-01 0.000000e+00
2.904000e+00 3.847500e-01 0.000000e+00
2.178000e+00 5.130000e-01 0.000000e+00
2.359500e+00 5.130000e-01 0.000000e+00
2.541000e+00 5.130000e-01 0.000000e+00
2.722500e+00 5.130000e-01 0.000000e+00
2.904000e+00 5.130000e-01 0.000000e+00
2.904000e+00 0.000000e+00 0.000000e+00
3.085500e+00 0.000000e+00 0.000000e+00
3.267000e+00 0.000000e+00 0.000000e+00
3.448500e+00 0.000000e+00 0.000000e+00
3.630000e+00 0.000000e+00 0.000000e+00
2.904000e+00 1.282500e-01 0.000000e+00
3.085500e+00 1.282500e-01 0.000000e+00
3.267000e+00 1.282500e-01 0.000000e+00
3.448500e+00 1.282500e-01 0.000000e+00
3.630000e+00 1.282500e-01 0.000000e+00
2.904000e+00 2.565000e-01 0.000000e+00
3.085500e+00 2.565000e-01 0.000000e+00
3.267000e+00 2.565000e-01 0.000000e+00
3.448500e+00 2.565000e-01 0.000000e+00
3.630000e+00 2.565000e-01 0.000000e+00
2.904000e+00 3.847500e-01 0.000000e+00
3.085500e+00 3.847500e-01 0.000000e+00
3.267000e+00 3.847500e-01 0.000000e+00
3.448500e+00 3.847500e-01 0.000000e+00
3.630000e+00 3.847500e-01 0.000000e+00
2.904000e+00 5.130000e-01 0.000000e+00
[...]
<PointData>
<DataArray type="Float32" Name="V1" format="ascii">
0.000000e+00
0.000000e+00
0.000000e+00
0.000000e+00
0.000000e+00
1.264110e-02
1.104190e-02
9.686870e-03
8.575940e-03
7.709160e-03
2.028400e-02
1.823700e-02
1.644510e-02
1.490810e-02
1.362620e-02
2.292870e-02
2.158530e-02
2.027460e-02
1.899650e-02
1.775110e-02
2.057510e-02
2.108680e-02
2.117550e-02
2.084120e-02
2.008390e-02
0.000000e+00
0.000000e+00
0.000000e+00
0.000000e+00
0.000000e+00
7.709160e-03
6.723320e-03
6.018760e-03
5.595460e-03
5.453420e-03
1.362620e-02
1.215030e-02
1.105150e-02
1.032980e-02
9.985060e-03
1.775110e-02
1.628110e-02
1.509840e-02
1.420300e-02
1.359490e-02
2.008390e-02
1.911550e-02
1.815920e-02
1.721510e-02
1.628300e-02
0.000000e+00
0.000000e+00
0.000000e+00
0.000000e+00
0.000000e+00
5.453420e-03
5.440290e-03
5.395680e-03
5.319590e-03
5.212040e-03
9.985060e-03
9.884030e-03
9.696340e-03
9.421990e-03
9.060990e-03
1.359490e-02
1.333120e-02
1.290200e-02
1.230720e-02
1.154680e-02
1.628300e-02
1.578190e-02
1.501270e-02
1.397520e-02
1.266960e-02
0.000000e+00
0.000000e+00
0.000000e+00
0.000000e+00
0.000000e+00
5.212040e-03
3.742140e-03
3.650890e-03
4.938280e-03
7.604330e-03
9.060990e-03
6.400940e-03
5.953350e-03
7.718210e-03
1.169550e-02
1.154680e-02
7.976400e-03
6.907380e-03
8.339790e-03
1.227360e-02
1.266960e-02
8.468510e-03
6.512990e-03
6.803020e-03
9.338630e-03
0.000000e+00
0.000000e+00
0.000000e+00
0.000000e+00
0.000000e+00
7.604330e-03
3.604920e-03
-2.974510e-03
-1.213400e-02
-2.387350e-02
1.169550e-02
3.192600e-03
-8.349890e-03
-2.293190e-02
-4.055350e-02
1.227360e-02
-1.236970e-03
-1.612610e-02
-3.239390e-02
-5.004020e-02
9.338630e-03
-9.683780e-03
-2.630330e-02
-4.051980e-02
-5.233340e-02
0.000000e+00
0.000000e+00
0.000000e+00
0.000000e+00
0.000000e+00
-2.387350e-02
-2.292220e-02
-2.196720e-02
-2.100860e-02
-2.004620e-02
-4.055350e-02
-3.790350e-02
-3.548140e-02
-3.328710e-02
-3.132060e-02
-5.004020e-02
-4.494390e-02
-4.054240e-02
-3.683560e-02
-3.382340e-02
-5.233340e-02
-4.404340e-02
-3.715030e-02
-3.165400e-02
-2.755460e-02
0.000000e+00
0.000000e+00
0.000000e+00
0.000000e+00
0.000000e+00
-2.004620e-02
-1.783050e-02
-1.486010e-02
-1.113500e-02
-6.655090e-03
-3.132060e-02
-2.778170e-02
-2.307970e-02
-1.721440e-02
-1.018600e-02
-3.382340e-02
-2.985370e-02
-2.465870e-02
-1.823830e-02
-1.059270e-02
-2.755460e-02
-2.404640e-02
-1.959710e-02
-1.420680e-02
-7.875290e-03
0.000000e+00
0.000000e+00
0.000000e+00
0.000000e+00
0.000000e+00
-6.655090e-03
-2.978220e-03
-8.209720e-05
2.033270e-03
3.367900e-03
-1.018600e-02
-4.289380e-03
3.828690e-04
3.830730e-03
6.054220e-03
-1.059270e-02
-3.933480e-03
1.394900e-03
5.392380e-03
8.058980e-03
-7.875290e-03
-1.910510e-03
2.953990e-03
6.718210e-03
9.382160e-03
0.000000e+00
0.000000e+00
0.000000e+00
0.000000e+00
0.000000e+00
3.367900e-03
4.908590e-03
6.137890e-03
7.055790e-03
7.662290e-03
6.054220e-03
8.586930e-03
1.061950e-02
1.215200e-02
1.318440e-02
8.058980e-03
1.103500e-02
1.344490e-02
1.528870e-02
1.656640e-02
9.382160e-03
1.225280e-02
1.461400e-02
1.646590e-02
1.780830e-02
0.000000e+00
0.000000e+00
0.000000e+00
0.000000e+00
0.000000e+00
7.662290e-03
8.239390e-03
8.842070e-03
9.470320e-03
1.012420e-02
1.318440e-02
1.425070e-02
1.530830e-02
1.635720e-02
1.739740e-02
1.656640e-02
1.803400e-02
1.939870e-02
2.066060e-02
2.181960e-02
1.780830e-02
1.958920e-02
2.111330e-02
2.238060e-02
2.339090e-02
2.057510e-02
2.108680e-02
2.117550e-02
2.084120e-02
2.008390e-02
2.078850e-02
2.097390e-02
2.100950e-02
2.089540e-02
2.063160e-02
2.103660e-02
2.096020e-02
2.091610e-02
2.090420e-02
2.092460e-02
2.131930e-02
2.104570e-02
2.089510e-02
2.086750e-02
2.096290e-02
2.163650e-02
2.123040e-02
2.094670e-02
2.078540e-02
2.074650e-02
2.008390e-02
1.911550e-02
1.815920e-02
1.721510e-02
1.628300e-02
2.063160e-02
2.008200e-02
1.944480e-02
1.872000e-02
1.790750e-02
2.092460e-02
2.065900e-02
2.026540e-02
1.974390e-02
1.909450e-02
2.096290e-02
2.084630e-02
2.062090e-02
2.028670e-02
1.984390e-02
2.074650e-02
2.064400e-02
2.051130e-02
2.034860e-02
2.015570e-02
1.628300e-02
1.578190e-02
1.501270e-02
1.397520e-02
1.266960e-02
1.790750e-02
1.702900e-02
1.597990e-02
1.476030e-02
1.337020e-02
1.909450e-02
1.783300e-02
1.660230e-02
1.540250e-02
1.423340e-02
1.984390e-02
1.819390e-02
1.687980e-02
1.590170e-02
1.525950e-02
2.015570e-02
1.811170e-02
1.681250e-02
1.625800e-02
1.644820e-02
1.266960e-02
8.468510e-03
6.512990e-03
6.803020e-03
9.338630e-03
1.337020e-02
9.004800e-03
6.320600e-03
5.317550e-03
5.995650e-03
1.423340e-02
9.610730e-03
6.340610e-03
4.423070e-03
3.858130e-03
1.525950e-02
1.028630e-02
6.573010e-03
4.119600e-03
2.926060e-03
1.644820e-02
1.103150e-02
7.017800e-03
4.407110e-03
3.199440e-03
9.338630e-03
-9.683780e-03
-2.630330e-02
-4.051980e-02
-5.233340e-02
5.995650e-03
-1.416480e-02
-3.062650e-02
-4.338930e-02
-5.245330e-02
3.858130e-03
-1.535440e-02
-3.033410e-02
-4.108110e-02
-4.759540e-02
2.926060e-03
-1.325250e-02
-2.542630e-02
-3.359540e-02
-3.775980e-02
3.199440e-03
-7.859100e-03
-1.590290e-02
-2.093200e-02
-2.294640e-02
-5.233340e-02
-4.404340e-02
-3.715030e-02
-3.165400e-02
-2.755460e-02
-5.245330e-02
-4.405650e-02
-3.627130e-02
-2.909760e-02
-2.253560e-02
-4.759540e-02
-3.998110e-02
-3.219550e-02
-2.423850e-02
-1.611000e-02
-3.775980e-02
-3.181730e-02
-2.492290e-02
-1.707650e-02
-8.278030e-03
-2.294640e-02
-1.956510e-02
-1.445350e-02
-7.611650e-03
9.605060e-04
-2.755460e-02
-2.404640e-02
-1.959710e-02
-1.420680e-02
-7.875290e-03
-2.253560e-02
-2.075920e-02
-1.750070e-02
-1.276030e-02
-6.537770e-03
-1.611000e-02
-1.552880e-02
-1.334530e-02
-9.559460e-03
-4.171330e-03
-8.278030e-03
-8.355410e-03
-7.130860e-03
-4.604380e-03
-7.759760e-04
9.605060e-04
7.610890e-04
1.142580e-03
2.104980e-03
3.648290e-03
-7.875290e-03
-1.910510e-03
2.953990e-03
6.718210e-03
9.382160e-03
-6.537770e-03
-1.210450e-04
4.902350e-03
8.532420e-03
1.076920e-02
-4.171330e-03
2.288600e-03
7.179280e-03
1.050070e-02
1.225300e-02
-7.759760e-04
5.318410e-03
9.784790e-03
1.262320e-02
1.383350e-02
3.648290e-03
8.968390e-03
1.271890e-02
1.489970e-02
1.551090e-02
9.382160e-03
1.225280e-02
1.461400e-02
1.646590e-02
1.780830e-02
1.076920e-02
1.337390e-02
1.552820e-02
1.723230e-02
1.848610e-02
1.225300e-02
1.451870e-02
1.641080e-02
1.792920e-02
1.907390e-02
1.383350e-02
1.568740e-02
1.726170e-02
1.855650e-02
1.957180e-02
1.551090e-02
1.687990e-02
1.808100e-02
1.911430e-02
1.997970e-02
1.780830e-02
1.958920e-02
2.111330e-02
2.238060e-02
2.339090e-02
1.848610e-02
2.033890e-02
2.190190e-02
2.317510e-02
2.415850e-02
1.907390e-02
2.093250e-02
2.247300e-02
2.369550e-02
2.459990e-02
1.957180e-02
2.137000e-02
2.282660e-02
2.394170e-02
2.471520e-02
1.997970e-02
2.165140e-02
2.296270e-02
2.391370e-02
2.450430e-02
2.163650e-02
2.123040e-02
2.094670e-02
2.078540e-02
2.074650e-02
2.197900e-02
2.158660e-02
2.129330e-02
2.109920e-02
2.100410e-02
2.233590e-02
2.198110e-02
2.170000e-02
2.149260e-02
2.135880e-02
2.270730e-02
2.241400e-02
2.216670e-02
2.196560e-02
2.181040e-02
2.309330e-02
2.288520e-02
2.269350e-02
2.251810e-02
2.235910e-02
2.074650e-02
2.064400e-02
2.051130e-02
2.034860e-02
2.015570e-02
2.100410e-02
2.076870e-02
2.059280e-02
2.047630e-02
2.041950e-02
2.135880e-02
2.101030e-02
2.079320e-02
2.070730e-02
2.075270e-02
2.181040e-02
2.136890e-02
2.111250e-02
2.104130e-02
2.115530e-02
2.235910e-02
2.184440e-02
2.155080e-02
2.147860e-02
2.162750e-02
2.015570e-02
1.811170e-02
1.681250e-02
1.625800e-02
1.644820e-02
2.041950e-02
1.804330e-02
1.679770e-02
1.668260e-02
1.769820e-02
2.075270e-02
1.816960e-02
1.700180e-02
1.724910e-02
1.891170e-02
2.115530e-02
1.849080e-02
1.742490e-02
1.795750e-02
2.008860e-02
2.162750e-02
1.900680e-02
1.806690e-02
1.880770e-02
2.122910e-02
1.644820e-02
1.103150e-02
7.017800e-03
4.407110e-03
3.199440e-03
1.769820e-02
1.214470e-02
8.266480e-03
6.063460e-03
5.535670e-03
1.891170e-02
1.367060e-02
1.013970e-02
8.318930e-03
8.208320e-03
2.008860e-02
1.560910e-02
1.263740e-02
1.117350e-02
1.121740e-02
2.122910e-02
1.796040e-02
1.575970e-02
1.462730e-02
1.456290e-02
3.199440e-03
-7.859100e-03
-1.590290e-02
-2.093200e-02
-2.294640e-02
5.535670e-03
1.901860e-03
-8.848040e-04
-2.824320e-03
-3.916690e-03
8.208320e-03
1.079980e-02
1.245390e-02
1.317060e-02
1.294990e-02
1.121740e-02
1.883470e-02
2.411310e-02
2.705270e-02
2.765340e-02
1.456290e-02
2.600650e-02
3.409290e-02
3.882190e-02
4.019370e-02
-2.294640e-02
-1.956510e-02
-1.445350e-02
-7.611650e-03
9.605060e-04
-3.916690e-03
-5.538360e-03
-4.006010e-03
6.803560e-04
8.520750e-03
1.294990e-02
8.049770e-03
7.123040e-03
1.016970e-02
1.718990e-02
2.765340e-02
2.119930e-02
1.893370e-02
2.085650e-02
2.696780e-02
4.019370e-02
3.391020e-02
3.142580e-02
3.274060e-02
3.785460e-02
9.605060e-04
7.610890e-04
1.142580e-03
2.104980e-03
3.648290e-03
8.520750e-03
8.227580e-03
8.054900e-03
8.002710e-03
8.071010e-03
1.718990e-02
1.620130e-02
1.506950e-02
1.379420e-02
1.237560e-02
2.696780e-02
2.468240e-02
2.218630e-02
1.947950e-02
1.656210e-02
3.785460e-02
3.367070e-02
2.940530e-02
2.505850e-02
2.063040e-02
3.648290e-03
8.968390e-03
1.271890e-02
1.489970e-02
1.551090e-02
8.071010e-03
1.251270e-02
1.552670e-02
1.711290e-02
1.727140e-02
1.237560e-02
1.593030e-02
1.821750e-02
1.923710e-02
1.898930e-02
1.656210e-02
1.922120e-02
2.079130e-02
2.127240e-02
2.066440e-02
2.063040e-02
2.238540e-02
2.324820e-02
2.321870e-02
2.229690e-02
1.551090e-02
1.687990e-02
1.808100e-02
1.911430e-02
1.997970e-02
1.727140e-02
1.819890e-02
1.906690e-02
1.987520e-02
2.062400e-02
1.898930e-02
1.950770e-02
2.006030e-02
2.064710e-02
2.126820e-02
2.066440e-02
2.080610e-02
2.106130e-02
2.143010e-02
2.191250e-02
2.229690e-02
2.209420e-02
2.206990e-02
2.222410e-02
2.255680e-02
1.997970e-02
2.165140e-02
2.296270e-02
2.391370e-02
2.450430e-02
2.062400e-02
2.207500e-02
2.320520e-02
2.401450e-02
2.450310e-02
2.126820e-02
2.249780e-02
2.344870e-02
2.412090e-02
2.451430e-02
2.191250e-02
2.291990e-02
2.369330e-02
2.423260e-02
2.453800e-02
2.255680e-02
2.334130e-02
2.393890e-02
2.434990e-02
2.457410e-02
2.309330e-02
2.288520e-02
2.269350e-02
2.251810e-02
2.235910e-02
2.348320e-02
2.330180e-02
2.314270e-02
2.300580e-02
2.289130e-02
2.386930e-02
2.370870e-02
2.357760e-02
2.347590e-02
2.340370e-02
2.425160e-02
2.410590e-02
2.399810e-02
2.392830e-02
2.389640e-02
2.463000e-02
2.449330e-02
2.440430e-02
2.436300e-02
2.436940e-02
2.235910e-02
2.184440e-02
2.155080e-02
2.147860e-02
2.162750e-02
2.289130e-02
2.237270e-02
2.207930e-02
2.201100e-02
2.216780e-02
2.340370e-02
2.290320e-02
2.262400e-02
2.256620e-02
2.272970e-02
2.389640e-02
2.343570e-02
2.318500e-02
2.314420e-02
2.331330e-02
2.436940e-02
2.397040e-02
2.376230e-02
2.374500e-02
2.391850e-02
2.162750e-02
1.900680e-02
1.806690e-02
1.880770e-02
2.122910e-02
2.216780e-02
2.003780e-02
1.927780e-02
1.988780e-02
2.186770e-02
2.272970e-02
2.112390e-02
2.056580e-02
2.105550e-02
2.259300e-02
2.331330e-02
2.226500e-02
2.193080e-02
2.231080e-02
2.340490e-02
2.391850e-02
2.346120e-02
2.337290e-02
2.365360e-02
2.430350e-02
2.122910e-02
1.796040e-02
1.575970e-02
1.462730e-02
1.456290e-02
2.186770e-02
2.025320e-02
1.913370e-02
1.850920e-02
1.837970e-02
2.259300e-02
2.218770e-02
2.195750e-02
2.190250e-02
2.202260e-02
2.340490e-02
2.376390e-02
2.423130e-02
2.480710e-02
2.549140e-02
2.430350e-02
2.498170e-02
2.595490e-02
2.722310e-02
2.878620e-02
1.456290e-02
2.600650e-02
3.409290e-02
3.882190e-02
4.019370e-02
1.837970e-02
3.040330e-02
3.962470e-02
4.604410e-02
4.966150e-02
2.202260e-02
3.371610e-02
4.320410e-02
5.048640e-02
5.556300e-02
2.549140e-02
3.594510e-02
4.483080e-02
5.214860e-02
5.789830e-02
2.878620e-02
3.709020e-02
4.450510e-02
5.103070e-02
5.666730e-02
4.019370e-02
3.391020e-02
3.142580e-02
3.274060e-02
3.785460e-02
4.966150e-02
4.602300e-02
4.416930e-02
4.410050e-02
4.581660e-02
5.556300e-02
5.396660e-02
5.265920e-02
5.164090e-02
5.091160e-02
5.789830e-02
5.774110e-02
5.689550e-02
5.536170e-02
5.313950e-02
5.666730e-02
5.734630e-02
5.687820e-02
5.526290e-02
5.250040e-02
3.785460e-02
3.367070e-02
2.940530e-02
2.505850e-02
2.063040e-02
4.581660e-02
3.950240e-02
3.378030e-02
2.865050e-02
2.411290e-02
5.091160e-02
4.345970e-02
3.701210e-02
3.156890e-02
2.713000e-02
5.313950e-02
4.554250e-02
3.910060e-02
3.381370e-02
2.968180e-02
5.250040e-02
4.575100e-02
4.004580e-02
3.538490e-02
3.176820e-02
2.063040e-02
2.238540e-02
2.324820e-02
2.321870e-02
2.229690e-02
2.411290e-02
2.493140e-02
2.512590e-02
2.469660e-02
2.364330e-02
2.713000e-02
2.713810e-02
2.675930e-02
2.599380e-02
2.484150e-02
2.968180e-02
2.900550e-02
2.814840e-02
2.711050e-02
2.589170e-02
3.176820e-02
3.053370e-02
2.929310e-02
2.804640e-02
2.679370e-02
2.229690e-02
2.209420e-02
2.206990e-02
2.222410e-02
2.255680e-02
2.364330e-02
2.329070e-02
2.310150e-02
2.307580e-02
2.321350e-02
2.484150e-02
2.437340e-02
2.405020e-02
2.387200e-02
2.383860e-02
2.589170e-02
2.534240e-02
2.491600e-02
2.461260e-02
2.443200e-02
2.679370e-02
2.619760e-02
2.569890e-02
2.529770e-02
2.499390e-02
2.255680e-02
2.334130e-02
2.393890e-02
2.434990e-02
2.457410e-02
2.321350e-02
2.379970e-02
2.424020e-02
2.453480e-02
2.468360e-02
2.383860e-02
2.424120e-02
2.453580e-02
2.472230e-02
2.480070e-02
2.443200e-02
2.466570e-02
2.482590e-02
2.491250e-02
2.492550e-02
2.499390e-02
2.507320e-02
2.511030e-02
2.510530e-02
2.505800e-02
2.463000e-02
2.449330e-02
2.440430e-02
2.436300e-02
2.436940e-02
2.499690e-02
2.488660e-02
2.482250e-02
2.480460e-02
2.483290e-02
2.534870e-02
2.526820e-02
2.523070e-02
2.523590e-02
2.528410e-02
2.568540e-02
2.563830e-02
2.562880e-02
2.565700e-02
2.572280e-02
2.600690e-02
2.599660e-02
2.601690e-02
2.606780e-02
2.614920e-02
2.436940e-02
2.397040e-02
2.376230e-02
2.374500e-02
2.391850e-02
2.483290e-02
2.451440e-02
2.436350e-02
2.438020e-02
2.456440e-02
2.528410e-02
2.504290e-02
2.494750e-02
2.499790e-02
2.519410e-02
2.572280e-02
2.555580e-02
2.551430e-02
2.559830e-02
2.580770e-02
2.614920e-02
2.605320e-02
2.606380e-02
2.618120e-02
2.640530e-02
2.391850e-02
2.346120e-02
2.337290e-02
2.365360e-02
2.430350e-02
2.456440e-02
2.438420e-02
2.449180e-02
2.488700e-02
2.556990e-02
2.519410e-02
2.520690e-02
2.545990e-02
2.595320e-02
2.668680e-02
2.580770e-02
2.592910e-02
2.627730e-02
2.685230e-02
2.765400e-02
2.640530e-02
2.655090e-02
2.694390e-02
2.758410e-02
2.847170e-02
2.430350e-02
2.498170e-02
2.595490e-02
2.722310e-02
2.878620e-02
2.556990e-02
2.638600e-02
2.760340e-02
2.922210e-02
3.124220e-02
2.668680e-02
2.768640e-02
2.909100e-02
3.090060e-02
3.311520e-02
2.765400e-02
2.888300e-02
3.041790e-02
3.225850e-02
3.440500e-02
2.847170e-02
2.997590e-02
3.158400e-02
3.329590e-02
3.511170e-02
2.878620e-02
3.709020e-02
4.450510e-02
5.103070e-02
5.666730e-02
3.124220e-02
3.844820e-02
4.485430e-02
5.046080e-02
5.526750e-02
3.311520e-02
3.920780e-02
4.460700e-02
4.931270e-02
5.332480e-02
3.440500e-02
3.936920e-02
4.376300e-02
4.758640e-02
5.083940e-02
3.511170e-02
3.893230e-02
4.232240e-02
4.528200e-02
4.781110e-02
5.666730e-02
5.734630e-02
5.687820e-02
5.526290e-02
5.250040e-02
5.526750e-02
5.582440e-02
5.530920e-02
5.372190e-02
5.106260e-02
5.332480e-02
5.375810e-02
5.324140e-02
5.177490e-02
4.935860e-02
5.083940e-02
5.114730e-02
5.067480e-02
4.942190e-02
4.738850e-02
4.781110e-02
4.799220e-02
4.760940e-02
4.666270e-02
4.515230e-02
5.250040e-02
4.575100e-02
4.004580e-02
3.538490e-02
3.176820e-02
5.106260e-02
4.524890e-02
4.030590e-02
3.623350e-02
3.303170e-02
4.935860e-02
4.452970e-02
4.036630e-02
3.686860e-02
3.403640e-02
4.738850e-02
4.359340e-02
4.022730e-02
3.729020e-02
3.478220e-02
4.515230e-02
4.244000e-02
3.988860e-02
3.749830e-02
3.526900e-02
3.176820e-02
3.053370e-02
2.929310e-02
2.804640e-02
2.679370e-02
3.303170e-02
3.158110e-02
3.019520e-02
2.887390e-02
2.761730e-02
3.403640e-02
3.240900e-02
3.091240e-02
2.954680e-02
2.831210e-02
3.478220e-02
3.301710e-02
3.144480e-02
3.006520e-02
2.887830e-02
3.526900e-02
3.340570e-02
3.179240e-02
3.042900e-02
2.931570e-02
2.679370e-02
2.619760e-02
2.569890e-02
2.529770e-02
2.499390e-02
2.761730e-02
2.696350e-02
2.639730e-02
2.591850e-02
2.552710e-02
2.831210e-02
2.761740e-02
2.700100e-02
2.646290e-02
2.600310e-02
2.887830e-02
2.815910e-02
2.751000e-02
2.693090e-02
2.642190e-02
2.931570e-02
2.858870e-02
2.792430e-02
2.732260e-02
2.678350e-02
2.499390e-02
2.507320e-02
2.511030e-02
2.510530e-02
2.505800e-02
2.552710e-02
2.546990e-02
2.539740e-02
2.530970e-02
2.520680e-02
2.600310e-02
2.582940e-02
2.566340e-02
2.550490e-02
2.535410e-02
2.642190e-02
2.615190e-02
2.590830e-02
2.569080e-02
2.549970e-02
2.678350e-02
2.643730e-02
2.613200e-02
2.586740e-02
2.564370e-02
2.600690e-02
2.599660e-02
2.601690e-02
2.606780e-02
2.614920e-02
2.630990e-02
2.633420e-02
2.638350e-02
2.645780e-02
2.655700e-02
2.659390e-02
2.665060e-02
2.672700e-02
2.682290e-02
2.693840e-02
2.685910e-02
2.694600e-02
2.704730e-02
2.716320e-02
2.729350e-02
2.710540e-02
2.722010e-02
2.734450e-02
2.747850e-02
2.762230e-02
2.614920e-02
2.605320e-02
2.606380e-02
2.618120e-02
2.640530e-02
2.655700e-02
2.650660e-02
2.655520e-02
2.670280e-02
2.694940e-02
2.693840e-02
2.692650e-02
2.700640e-02
2.717810e-02
2.744180e-02
2.729350e-02
2.731280e-02
2.741730e-02
2.760730e-02
2.788260e-02
2.762230e-02
2.766550e-02
2.778820e-02
2.799020e-02
2.827170e-02
2.640530e-02
2.655090e-02
2.694390e-02
2.758410e-02
2.847170e-02
2.694940e-02
2.716560e-02
2.759470e-02
2.823660e-02
2.909140e-02
2.744180e-02
2.772350e-02
2.818100e-02
2.881420e-02
2.962330e-02
2.788260e-02
2.822470e-02
2.870290e-02
2.931700e-02
3.006720e-02
2.827170e-02
2.866910e-02
2.916020e-02
2.974490e-02
3.042330e-02
2.847170e-02
2.997590e-02
3.158400e-02
3.329590e-02
3.511170e-02
2.909140e-02
3.058580e-02
3.213530e-02
3.373970e-02
3.539920e-02
2.962330e-02
3.104170e-02
3.248890e-02
3.396490e-02
3.546970e-02
3.006720e-02
3.134360e-02
3.264500e-02
3.397150e-02
3.532310e-02
3.042330e-02
3.149140e-02
3.260340e-02
3.375940e-02
3.495930e-02
3.511170e-02
3.893230e-02
4.232240e-02
4.528200e-02
4.781110e-02
3.539920e-02
3.844610e-02
4.112170e-02
4.342600e-02
4.535890e-02
3.546970e-02
3.789860e-02
4.000820e-02
4.179830e-02
4.326900e-02
3.532310e-02
3.728980e-02
3.898180e-02
4.039900e-02
4.154140e-02
3.495930e-02
3.661970e-02
3.804260e-02
3.922810e-02
4.017620e-02
4.781110e-02
4.799220e-02
4.760940e-02
4.666270e-02
4.515230e-02
4.535890e-02
4.555910e-02
4.530960e-02
4.461030e-02
4.346110e-02
4.326900e-02
4.349460e-02
4.335410e-02
4.284770e-02
4.197530e-02
4.154140e-02
4.179840e-02
4.174300e-02
4.137510e-02
4.069470e-02
4.017620e-02
4.047080e-02
4.047620e-02
4.019240e-02
3.961950e-02
4.515230e-02
4.244000e-02
3.988860e-02
3.749830e-02
3.526900e-02
4.346110e-02
4.121540e-02
3.908490e-02
3.706950e-02
3.516930e-02
4.197530e-02
4.012480e-02
3.835180e-02
3.665630e-02
3.503830e-02
4.069470e-02
3.916800e-02
3.768920e-02
3.625860e-02
3.487610e-02
3.961950e-02
3.834500e-02
3.709730e-02
3.587660e-02
3.468260e-02
3.526900e-02
3.340570e-02
3.179240e-02
3.042900e-02
2.931570e-02
3.516930e-02
3.350040e-02
3.203320e-02
3.076770e-02
2.970390e-02
3.503830e-02
3.354250e-02
3.220750e-02
3.103340e-02
3.002010e-02
3.487610e-02
3.353200e-02
3.231540e-02
3.122620e-02
3.026450e-02
3.468260e-02
3.346900e-02
3.235690e-02
3.134620e-02
3.043700e-02
2.931570e-02
2.858870e-02
2.792430e-02
2.732260e-02
2.678350e-02
2.970390e-02
2.895710e-02
2.827540e-02
2.765880e-02
2.710740e-02
3.002010e-02
2.926070e-02
2.856900e-02
2.794490e-02
2.738860e-02
3.026450e-02
2.949960e-02
2.880500e-02
2.818090e-02
2.762710e-02
3.043700e-02
2.967370e-02
2.898360e-02
2.836660e-02
2.782280e-02
2.678350e-02
2.643730e-02
2.613200e-02
2.586740e-02
2.564370e-02
2.710740e-02
2.671420e-02
2.636620e-02
2.606360e-02
2.580620e-02
2.738860e-02
2.695900e-02
2.657740e-02
2.624390e-02
2.595840e-02
2.762710e-02
2.717170e-02
2.676550e-02
2.640840e-02
2.610040e-02
2.782280e-02
2.735230e-02
2.693040e-02
2.655700e-02
2.623220e-02
2.710540e-02
2.722010e-02
2.734450e-02
2.747850e-02
2.762230e-02
2.733260e-02
2.746390e-02
2.760380e-02
2.775240e-02
2.790970e-02
2.754220e-02
2.768750e-02
2.784030e-02
2.800060e-02
2.816830e-02
2.773410e-02
2.789100e-02
2.805400e-02
2.822310e-02
2.839820e-02
2.790840e-02
2.807440e-02