<?xml version="1.0"?>
<VTKFile type="UnstructuredGrid" version="0.1" byte_order="LittleEndian" compressor="vtkZLibDataCompressor">
<UnstructuredGrid>
<Piece NumberOfPoints="2500" NumberOfCells="1600">
<Points>
<DataArray type="Float32" NumberOfComponents="3" format="ascii">
-3.630000e+00 0.000000e+00 0.000000e+00
-3.448500e+00 0.000000e+00 0.000000e+00
-3.267000e+00 0.000000e+00 0.000000e+00
-3.085500e+00 0.000000e+00 0.000000e+00
-2.904000e+00 0.000000e+00 0.000000e+00
-3.630000e+00 1.282500e-01 0.000000e+00
-3.448500e+00 1.282500e-01 0.000000e+00
-3.267000e+00 1.282500e-01 0.000000e+00
-3.085500e+00 1.282500e-01 0.000000e+00
-2.904000e+00 1.282500e-01 0.000000e+00
-3.630000e+00 2.565000e-01 0.000000e+00
-3.448500e+00 2.565000e-01 0.000000e+00
-3.267000e+00 2.565000e-01 0.000000e+00
-3.085500e+00 2.565000e-01 0.000000e+00
-2.904000e+00 2.565000e-01 0.000000e+00
-3.630000e+00 3.847500e-01 0.000000e+00
-3.448500e+00 3.847500e-01 0.000000e+00
-3.267000e+00 3.847500e-01 0.000000e+00
-3.085500e+00 3.847500e-01 0.000000e+00
-2.904000e+00 3.847500e-01 0.000000e+00
-3.630000e+00 5.130000e-01 0.000000e+00
-3.448500e+00 5.130000e-01 0.000000e+00
-3.267000e+00 5.130000e-01 0.000000e+00
-3.085500e+00 5.130000e-01 0.000000e+00
-2.904000e+00 5.130000e-01 0.000000e+00
-2.904000e+00 0.000000e+00 0.000000e+00
-2.722500e+00 0.000000e+00 0.000000e+00
-2.541000e+00 0.000000e+00 0.000000e+00
-2.359500e+00 0.000000e+00 0.000000e+00
-2.178000e+00 0.000000e+00 0.000000e+00
-2.904000e+00 1.282500e-01 0.000000e+00
-2.722500e+00 1.282500e-01 0.000000e+00
-2.541000e+00 1.282500e-01 0.000000e+00
-2.359500e+00 1.282500e-01 0.000000e+00
-2.178000e+00 1.282500e-01 0.000000e+00
-2.904000e+00 2.565000e-01 0.000000e+00
-2.722500e+00 2.565000e-01 0.000000e+00
-2.541000e+00 2.565000e-01 0.000000e+00
-2.359500e+00 2.565000e-01 0.000000e+00
-2.178000e+00 2.565000e-01 0.000000e+00
-2.904000e+00 3.847500e-01 0.000000e+00
-2.722500e+00 3.847500e-01 0.000000e+00
-2.541000e+00 3.847500e-01 0.000000e+00
-2.359500e+00 3.847500e-01 0.000000e+00
-2.178000e+00 3.847500e-01 0.000000e+00
-2.904000e+00 5.130000e-01 0.000000e+00
-2.722500e+00 5.130000e-01 0.000000e+00
-2.541000e+00 5.130000e-01 0.000000e+00
-2.359500e+00 5.130000e-01 0.000000e+00
-2.178000e+00 5.130000e-01 0.000000e+00
-2.178000e+00 0.000000e+00 0.000000e+00
-1.996500e+00 0.000000e+00 0.000000e+00
-1.815000e+00 0.000000e+00 0.000000e+00
-1.633500e+00 0.000000e+00 0.000000e+00
-1.452000e+00 0.000000e+00 0.000000e+00
-2.178000e+00 1.282500e-01 0.000000e+00
-1.996500e+00 1.282500e-01 0.000000e+00
-1.815000e+00 1.282500e-01 0.000000e+00
-1.633500e+00 1.282500e-01 0.000000e+00
-1.452000e+00 1.282500e-01 0.000000e+00
-2.178000e+00 2.565000e-01 0.000000e+00
-1.996500e+00 2.565000e-01 0.000000e+00
-1.815000e+00 2.565000e-01 0.000000e+00
-1.633500e+00 2.565000e-01 0.000000e+00
-1.452000e+00 2.565000e-01 0.000000e+00
-2.178000e+00 3.847500e-01 0.000000e+00
-1.996500e+00 3.847500e-01 0.000000e+00
-1.815000e+00 3.847500e-01 0.000000e+00
-1.633500e+00 3.847500e-01 0.000000e+00
-1.452000e+00 3.847500e-01 0.000000e+00
-2.178000e+00 5.130000e-01 0.000000e+00
-1.996500e+00 5.130000e-01 0.000000e+00
-1.815000e+00 5.130000e-01 0.000000e+00
-1.633500e+00 5.130000e-01 0.000000e+00
-1.452000e+00 5.130000e-01 0.000000e+00
-1.452000e+00 0.000000e+00 0.000000e+00
-1.270500e+00 0.000000e+00 0.000000e+00
-1.089000e+00 0.000000e+00 0.000000e+00
-9.075000e-01 0.000000e+00 0.000000e+00
-7.260000e-01 0.000000e+00 0.000000e+00
-1.452000e+00 1.282500e-01 0.000000e+00
-1.270500e+00 1.282500e-01 0.000000e+00
-1.089000e+00 1.282500e-01 0.000000e+00
-9.075000e-01 1.282500e-01 0.000000e+00
-7.260000e-01 1.282500e-01 0.000000e+00
-1.452000e+00 2.565000e-01 0.000000e+00
-1.270500e+00 2.565000e-01 0.000000e+00
-1.089000e+00 2.565000e-01 0.000000e+00
-9.075000e-01 2.565000e-01 0.000000e+00
-7.260000e-01 2.565000e-01 0.000000e+00
-1.452000e+00 3.847500e-01 0.000000e+00
-1.270500e+00 3.847500e-01 0.000000e+00
-1.089000e+00 3.847500e-01 0.000000e+00
-9.075000e-01 3.847500e-01 0.000000e+00
-7.260000e-01 3.847500e-01 0.000000e+00
-1.452000e+00 5.130000e-01 0.000000e+00
-1.270500e+00 5.130000e-01 0.000000e+00
-1.089000e+00 5.130000e-01 0.000000e+00
-9.075000e-01 5.130000e-01 0.000000e+00
-7.260000e-01 5.130000e-01 0.000000e+00
-7.260000e-01 0.000000e+00 0.000000e+00
-5.445000e-01 0.000000e+00 0.000000e+00
-3.630000e-01 0.000000e+00 0.000000e+00
-1.815000e-01 0.000000e+00 0.000000e+00
0.000000e+00 0.000000e+00 0.000000e+00
-7.260000e-01 1.282500e-01 0.000000e+00
-5.445000e-01 1.282500e-01 0.000000e+00
-3.630000e-01 1.282500e-01 0.000000e+00
-1.815000e-01 1.282500e-01 0.000000e+00
0.000000e+00 1.282500e-01 0.000000e+00
-7.260000e-01 2.565000e-01 0.000000e+00
-5.445000e-01 2.565000e-01 0.000000e+00
-3.630000e-01 2.565000e-01 0.000000e+00
-1.815000e-01 2.565000e-01 0.000000e+00
0.000000e+00 2.565000e-01 0.000000e+00
-7.260000e-01 3.847500e-01 0.000000e+00
-5.445000e-01 3.847500e-01 0.000000e+00
-3.630000e-01 3.847500e-01 0.000000e+00
-1.815000e-01 3.847500e-01 0.000000e+00
0.000000e+00 3.847500e-01 0.000000e+00
-7.260000e-01 5.130000e-01 0.000000e+00
-5.445000e-01 5.130000e-01 0.000000e+00
-3.630000e-01 5.130000e-01 0.000000e+00
-1.815000e-01 5.130000e-01 0.000000e+00
0.000000e+00 5.130000e-01 0.000000e+00
0.000000e+00 0.000000e+00 0.000000e+00
1.815000e-01 0.000000e+00 0.000000e+00
3.630000e-01 0.000000e+00 0.000000e+00
5.445000e-01 0.000000e+00 0.000000e+00
7.260000e-01 0.000000e+00 0.000000e+00
0.000000e+00 1.282500e-01 0.000000e+00
1.815000e-01 1.282500e-01 0.000000e+00
3.630000e-01 1.282500e-01 0.000000e+00
5.445000e-01 1.282500e-01 0.000000e+00
7.260000e-01 1.282500e-01 0.000000e+00
0.000000e+00 2.565000e-01 0.000000e+00
1.815000e-01 2.565000e-01 0.000000e+00
3.630000e-01 2.565000e-01 0.000000e+00
5.445000e-01 2.565000e-01 0.000000e+00
7.260000e-01 2.565000e-01 0.000000e+00
0.000000e+00 3.847500e-01 0.000000e+00
1.815000e-01 3.847500e-01 0.000000e+00
3.630000e-01 3.847500e-01 0.000000e+00
5.445000e-01 3.847500e-01 0.000000e+00
7.260000e-01 3.847500e-01 0.000000e+00
0.000000e+00 5.130000e-01 0.000000e+00
1.815000e-01 5.130000e-01 0.000000e+00
3.630000e-01 5.130000e-01 0.000000e+00
5.445000e-01 5.130000e-01 0.000000e+00
7.260000e-01 5.130000e-01 0.000000e+00
7.260000e-01 0.000000e+00 0.000000e+00
9.075000e-01 0.000000e+00 0.000000e+00
1.089000e+00 0.000000e+00 0.000000e+00
1.270500e+00 0.000000e+00 0.000000e+00
1.452000e+00 0.000000e+00 0.000000e+00
7.260000e-01 1.282500e-01 0.000000e+00
9.075000e-01 1.282500e-01 0.000000e+00
1.089000e+00 1.282500e-01 0.000000e+00
1.270500e+00 1.282500e-01 0.000000e+00
1.452000e+00 1.282500e-01 0.000000e+00
7.260000e-01 2.565000e-01 0.000000e+00
9.075000e-01 2.565000e-01 0.000000e+00
1.089000e+00 2.565000e-01 0.000000e+00
1.270500e+00 2.565000e-01 0.000000e+00
1.452000e+00 2.565000e-01 0.000000e+00
7.260000e-01 3.847500e-01 0.000000e+00
9.075000e-01 3.847500e-01 0.000000e+00
1.089000e+00 3.847500e-01 0.000000e+00
1.270500e+00 3.847500e-01 0.000000e+00
1.452000e+00 3.847500e-01 0.000000e+00
7.260000e-01 5.130000e-01 0.000000e+00
9.075000e-01 5.130000e-01 0.000000e+00
1.089000e+00 5.130000e-01 0.000000e+00
1.270500e+00 5.130000e-01 0.000000e+00
1.452000e+00 5.130000e-01 0.000000e+00
1.452000e+00 0.000000e+00 0.000000e+00
1.633500e+00 0.000000e+00 0.000000e+00
1.815000e+00 0.000000e+00 0.000000e+00
1.996500e+00 0.000000e+00 0.000000e+00
2.178000e+00 0.000000e+00 0.000000e+00
1.452000e+00 1.282500e-01 0.000000e+00
1.633500e+00 1.282500e-01 0.000000e+00
1.815000e+00 1.282500e-01 0.000000e+00
1.996500e+00 1.282500e-01 0.000000e+00
2.178000e+00 1.282500e-01 0.000000e+00
1.452000e+00 2.565000e-01 0.000000e+00
1.633500e+00 2.565000e-01 0.000000e+00
1.815000e+00 2.565000e-01 0.000000e+00
1.996500e+00 2.565000e-01 0.000000e+00
2.178000e+00 2.565000e-01 0.000000e+00
1.452000e+00 3.847500e-01 0.000000e+00
1.633500e+00 3.847500e-01 0.000000e+00
1.815000e+00 3.847500e-01 0.000000e+00
1.996500e+00 3.847500e-01 0.000000e+00
2.178000e+00 3.847500e-01 0.000000e+00
1.452000e+00 5.130000e-01 0.000000e+00
1.633500e+00 5.130000e-01 0.000000e+00
1.815000e+00 5.130000e-01 0.000000e+00
1.996500e+00 5.130000e-01 0.000000e+00
2.178000e+00 5.130000e-01 0.000000e+00
2.178000e+00 0.000000e+00 0.000000e+00
2.359500e+00 0.000000e+00 0.000000e+00
2.541000e+00 0.000000e+00 0.000000e+00
2.722500e+00 0.000000e+00 0.000000e+00
2.904000e+00 0.000000e+00 0.000000e+00
2.178000e+00 1.282500e-01 0.000000e+00
2.359500e+00 1.282500e-01 0.000000e+00
2.541000e+00 1.282500e-01 0.000000e+00
2.722500e+00 1.282500e-01 0.000000e+00
2.904000e+00 1.282500e-01 0.000000e+00
2.178000e+00 2.565000e-01 0.000000e+00
2.359500e+00 2.565000e-01 0.000000e+00
2.541000e+00 2.565000e-01 0.000000e+00
2.722500e+00 2.565000e-01 0.000000e+00
2.904000e+00 2.565000e-01 0.000000e+00
2.178000e+00 3.847500e-01 0.000000e+00
2.359500e+00 3.847500e-01 0.000000e+00
2.541000e+00 3.847500e-01 0.000000e+00
2.722500e+00 3.847500e-01 0.000000e+00
2.904000e+00 3.847500e-01 0.000000e+00
2.178000e+00 5.130000e-01 0.000000e+00
2.359500e+00 5.130000e-01 0.000000e+00
2.541000e+00 5.130000e-01 0.000000e+00
2.722500e+00 5.130000e-01 0.000000e+00
2.904000e+00 5.130000e-01 0.000000e+00
2.904000e+00 0.000000e+00 0.000000e+00
3.085500e+00 0.000000e+00 0.000000e+00
3.267000e+00 0.000000e+00 0.000000e+00
3.448500e+00 0.000000e+00 0.000000e+00
3.630000e+00 0.000000e+00 0.000000e+00
2.904000e+00 1.282500e-01 0.000000e+00
3.085500e+00 1.282500e-01 0.000000e+00
3.267000e+00 1.282500e-01 0.000000e+00
3.448500e+00 1.282500e-01 0.000000e+00
3.630000e+00 1.282500e-01 0.000000e+00
2.904000e+00 2.565000e-01 0.000000e+00
3.085500e+00 2.565000e-01 0.000000e+00
3.267000e+00 2.565000e-01 0.000000e+00
3.448500e+00 2.565000e-01 0.000000e+00
3.630000e+00 2.565000e-01 0.000000e+00
2.904000e+00 3.847500e-01 0.000000e+00
3.085500e+00 3.847500e-01 0.000000e+00
3.267000e+00 3.847500e-01 0.000000e+00
3.448500e+00 3.847500e-01 0.000000e+00
3.630000e+00 3.847500e-01 0.000000e+00
2.904000e+00 5.130000e-01 0.000000e+00
[...]
<PointData>
<DataArray type="Float32" Name="V1" format="ascii">
0.000000e+00
0.000000e+00
0.000000e+00
0.000000e+00
0.000000e+00
1.264110e-02
1.103340e-02
9.646610e-03
8.480600e-03
7.535440e-03
2.028400e-02
1.822630e-02
1.638760e-02
1.476790e-02
1.336710e-02
2.292870e-02
2.157850e-02
2.022290e-02
1.886170e-02
1.749510e-02
2.057510e-02
2.109010e-02
2.115250e-02
2.076230e-02
1.991930e-02
0.000000e+00
0.000000e+00
0.000000e+00
0.000000e+00
0.000000e+00
7.535440e-03
6.469710e-03
5.643900e-03
5.058030e-03
4.712100e-03
1.336710e-02
1.178070e-02
1.051520e-02
9.570570e-03
8.946800e-03
1.749510e-02
1.593310e-02
1.461390e-02
1.353760e-02
1.270410e-02
1.991930e-02
1.892680e-02
1.794010e-02
1.695910e-02
1.598410e-02
0.000000e+00
0.000000e+00
0.000000e+00
0.000000e+00
0.000000e+00
4.712100e-03
4.437120e-03
4.239970e-03
4.120630e-03
4.079100e-03
8.946800e-03
8.431960e-03
8.047190e-03
7.792480e-03
7.667840e-03
1.270410e-02
1.198450e-02
1.142170e-02
1.101560e-02
1.076620e-02
1.598410e-02
1.509480e-02
1.436340e-02
1.378990e-02
1.337420e-02
0.000000e+00
0.000000e+00
0.000000e+00
0.000000e+00
0.000000e+00
4.079100e-03
3.857610e-03
4.031830e-03
4.601740e-03
5.567360e-03
7.667840e-03
7.140010e-03
7.303480e-03
8.158260e-03
9.704330e-03
1.076620e-02
9.847190e-03
9.814970e-03
1.066950e-02
1.241090e-02
1.337420e-02
1.197920e-02
1.156630e-02
1.213560e-02
1.368710e-02
0.000000e+00
0.000000e+00
0.000000e+00
0.000000e+00
0.000000e+00
5.567360e-03
5.295640e-03
4.104890e-03
1.995110e-03
-1.033710e-03
9.704330e-03
8.829060e-03
6.418160e-03
2.471620e-03
-3.010550e-03
1.241090e-02
1.060030e-02
6.939820e-03
1.429550e-03
-5.930530e-03
1.368710e-02
1.060930e-02
5.669870e-03
-1.131110e-03
-9.793640e-03
0.000000e+00
0.000000e+00
0.000000e+00
0.000000e+00
0.000000e+00
-1.033710e-03
-2.811820e-03
-5.383880e-03
-8.749890e-03
-1.290990e-02
-3.010550e-03
-6.048180e-03
-1.025090e-02
-1.561880e-02
-2.215180e-02
-5.930530e-03
-9.709080e-03
-1.460110e-02
-2.060670e-02
-2.772580e-02
-9.793640e-03
-1.379450e-02
-1.843450e-02
-2.371360e-02
-2.963180e-02
0.000000e+00
0.000000e+00
0.000000e+00
0.000000e+00
0.000000e+00
-1.290990e-02
-1.339480e-02
-1.285560e-02
-1.129220e-02
-8.704520e-03
-2.215180e-02
-2.239080e-02
-2.110700e-02
-1.830030e-02
-1.397070e-02
-2.772580e-02
-2.698800e-02
-2.475420e-02
-2.102440e-02
-1.579860e-02
-2.963180e-02
-2.718630e-02
-2.379720e-02
-1.946450e-02
-1.418820e-02
0.000000e+00
0.000000e+00
0.000000e+00
0.000000e+00
0.000000e+00
-8.704520e-03
-7.618190e-03
-6.047310e-03
-3.991870e-03
-1.451880e-03
-1.397070e-02
-1.208890e-02
-9.456700e-03
-6.074120e-03
-1.941180e-03
-1.579860e-02
-1.341210e-02
-1.022820e-02
-6.246760e-03
-1.467900e-03
-1.418820e-02
-1.158790e-02
-8.361730e-03
-4.509780e-03
-3.203840e-05
0.000000e+00
0.000000e+00
0.000000e+00
0.000000e+00
0.000000e+00
-1.451880e-03
7.053140e-04
2.482870e-03
3.880770e-03
4.899040e-03
-1.941180e-03
1.663840e-03
4.637090e-03
6.978550e-03
8.688220e-03
-1.467900e-03
2.875590e-03
6.462660e-03
9.293320e-03
1.136750e-02
-3.203840e-05
4.340550e-03
7.959600e-03
1.082510e-02
1.293700e-02
0.000000e+00
0.000000e+00
0.000000e+00
0.000000e+00
0.000000e+00
4.899040e-03
5.923080e-03
6.850080e-03
7.680030e-03
8.412930e-03
8.688220e-03
1.042740e-02
1.198760e-02
1.336890e-02
1.457120e-02
1.136750e-02
1.351300e-02
1.541270e-02
1.706660e-02
1.847480e-02
1.293700e-02
1.517980e-02
1.712520e-02
1.877320e-02
2.012370e-02
2.057510e-02
2.109010e-02
2.115250e-02
2.076230e-02
1.991930e-02
2.078850e-02
2.098030e-02
2.100150e-02
2.085220e-02
2.053230e-02
2.103660e-02
2.097110e-02
2.092190e-02
2.088890e-02
2.087220e-02
2.131930e-02
2.106260e-02
2.091360e-02
2.087240e-02
2.093890e-02
2.163650e-02
2.125480e-02
2.097690e-02
2.080280e-02
2.073260e-02
1.991930e-02
1.892680e-02
1.794010e-02
1.695910e-02
1.598410e-02
2.053230e-02
2.004190e-02
1.947620e-02
1.883530e-02
1.811910e-02
2.087220e-02
2.074170e-02
2.049530e-02
2.013300e-02
1.965480e-02
2.093890e-02
2.102620e-02
2.099740e-02
2.085240e-02
2.059120e-02
2.073260e-02
2.089540e-02
2.098230e-02
2.099330e-02
2.092830e-02
1.598410e-02
1.509480e-02
1.436340e-02
1.378990e-02
1.337420e-02
1.811910e-02
1.728310e-02
1.656020e-02
1.595030e-02
1.545360e-02
1.965480e-02
1.889510e-02
1.822170e-02
1.763470e-02
1.713410e-02
2.059120e-02
1.993070e-02
1.934800e-02
1.884310e-02
1.841590e-02
2.092830e-02
2.039010e-02
1.993910e-02
1.957530e-02
1.929880e-02
1.337420e-02
1.197920e-02
1.156630e-02
1.213560e-02
1.368710e-02
1.545360e-02
1.347480e-02
1.271700e-02
1.318020e-02
1.486430e-02
1.713410e-02
1.467860e-02
1.366350e-02
1.408860e-02
1.595400e-02
1.841590e-02
1.559050e-02
1.440550e-02
1.486080e-02
1.695640e-02
1.929880e-02
1.621060e-02
1.494320e-02
1.549690e-02
1.787140e-02
1.368710e-02
1.060930e-02
5.669870e-03
-1.131110e-03
-9.793640e-03
1.486430e-02
1.050760e-02
4.718890e-03
-2.501810e-03
-1.115450e-02
1.595400e-02
1.075280e-02
4.499100e-03
-2.806980e-03
-1.116550e-02
1.695640e-02
1.134480e-02
5.010500e-03
-2.046610e-03
-9.826500e-03
1.787140e-02
1.228380e-02
6.253090e-03
-2.207130e-04
-7.137610e-03
-9.793640e-03
-1.379450e-02
-1.843450e-02
-2.371360e-02
-2.963180e-02
-1.115450e-02
-1.357480e-02
-1.732460e-02
-2.240410e-02
-2.881310e-02
-1.116550e-02
-1.172690e-02
-1.436920e-02
-1.909250e-02
-2.589680e-02
-9.826500e-03
-8.250840e-03
-9.568310e-03
-1.377890e-02
-2.088270e-02
-7.137610e-03
-3.146660e-03
-2.921880e-03
-6.463280e-03
-1.377080e-02
-2.963180e-02
-2.718630e-02
-2.379720e-02
-1.946450e-02
-1.418820e-02
-2.881310e-02
-2.666240e-02
-2.332800e-02
-1.881020e-02
-1.310880e-02
-2.589680e-02
-2.434470e-02
-2.127590e-02
-1.669050e-02
-1.058850e-02
-2.088270e-02
-2.023320e-02
-1.764090e-02
-1.310560e-02
-6.627310e-03
-1.377080e-02
-1.432800e-02
-1.242280e-02
-8.055250e-03
-1.225260e-03
-1.418820e-02
-1.158790e-02
-8.361730e-03
-4.509780e-03
-3.203840e-05
-1.310880e-02
-1.104710e-02
-8.078040e-03
-4.201640e-03
5.821050e-04
-1.058850e-02
-9.149460e-03
-6.625400e-03
-3.016300e-03
1.677830e-03
-6.627310e-03
-5.894980e-03
-4.003790e-03
-9.537500e-04
3.255150e-03
-1.225260e-03
-1.283650e-03
-2.132310e-04
1.986000e-03
5.314050e-03
-3.203840e-05
4.340550e-03
7.959600e-03
1.082510e-02
1.293700e-02
5.821050e-04
5.395020e-03
9.247810e-03
1.214050e-02
1.407310e-02
1.677830e-03
6.729390e-03
1.065800e-02
1.346350e-02
1.514610e-02
3.255150e-03
8.343670e-03
1.219000e-02
1.479420e-02
1.615620e-02
5.314050e-03
1.023790e-02
1.384400e-02
1.613250e-02
1.710330e-02
1.293700e-02
1.517980e-02
1.712520e-02
1.877320e-02
2.012370e-02
1.407310e-02
1.613400e-02
1.798820e-02
1.963570e-02
2.107640e-02
1.514610e-02
1.697980e-02
1.869130e-02
2.028070e-02
2.174800e-02
1.615620e-02
1.771710e-02
1.923450e-02
2.070830e-02
2.213860e-02
1.710330e-02
1.834610e-02
1.961780e-02
2.091840e-02
2.224810e-02
2.163650e-02
2.125480e-02
2.097690e-02
2.080280e-02
2.073260e-02
2.197900e-02
2.160130e-02
2.131190e-02
2.111070e-02
2.099780e-02
2.233590e-02
2.198600e-02
2.170630e-02
2.149680e-02
2.135750e-02
2.270730e-02
2.240870e-02
2.215990e-02
2.196080e-02
2.181150e-02
2.309330e-02
2.286950e-02
2.267280e-02
2.250290e-02
2.236010e-02
2.073260e-02
2.089540e-02
2.098230e-02
2.099330e-02
2.092830e-02
2.099780e-02
2.106250e-02
2.111070e-02
2.114240e-02
2.115760e-02
2.135750e-02
2.133330e-02
2.133780e-02
2.137090e-02
2.143260e-02
2.181150e-02
2.170790e-02
2.166360e-02
2.167870e-02
2.175310e-02
2.236010e-02
2.218620e-02
2.208820e-02
2.206590e-02
2.211930e-02
2.092830e-02
2.039010e-02
1.993910e-02
1.957530e-02
1.929880e-02
2.115760e-02
2.063770e-02
2.026690e-02
2.004500e-02
1.997220e-02
2.143260e-02
2.091330e-02
2.059970e-02
2.049170e-02
2.058950e-02
2.175310e-02
2.121670e-02
2.093740e-02
2.091550e-02
2.115080e-02
2.211930e-02
2.154790e-02
2.128020e-02
2.131620e-02
2.165590e-02
1.929880e-02
1.621060e-02
1.494320e-02
1.549690e-02
1.787140e-02
1.997220e-02
1.688190e-02
1.564590e-02
1.626430e-02
1.873710e-02
2.058950e-02
1.762010e-02
1.646650e-02
1.712870e-02
1.960670e-02
2.115080e-02
1.842530e-02
1.740500e-02
1.809000e-02
2.048020e-02
2.165590e-02
1.929740e-02
1.846150e-02
1.914820e-02
2.135740e-02
1.787140e-02
1.228380e-02
6.253090e-03
-2.207130e-04
-7.137610e-03
1.873710e-02
1.397400e-02
8.693010e-03
2.894230e-03
-3.422380e-03
1.960670e-02
1.596820e-02
1.160090e-02
6.504820e-03
6.799020e-04
2.048020e-02
1.826650e-02
1.497680e-02
1.061110e-02
5.169240e-03
2.135740e-02
2.086890e-02
1.882070e-02
1.521300e-02
1.004560e-02
-7.137610e-03
-3.146660e-03
-2.921880e-03
-6.463280e-03
-1.377080e-02
-3.422380e-03
2.356060e-03
4.019400e-03
1.567620e-03
-4.999280e-03
6.799020e-04
7.636440e-03
1.050880e-02
9.297090e-03
4.001190e-03
5.169240e-03
1.269450e-02
1.654640e-02
1.672510e-02
1.323060e-02
1.004560e-02
1.753020e-02
2.213220e-02
2.385180e-02
2.268880e-02
-1.377080e-02
-1.432800e-02
-1.242280e-02
-8.055250e-03
-1.225260e-03
-4.999280e-03
-6.827970e-03
-5.821390e-03
-1.979510e-03
4.697650e-03
4.001190e-03
1.496380e-03
1.848640e-03
5.057970e-03
1.112440e-02
1.323060e-02
1.064500e-02
1.058720e-02
1.305720e-02
1.805490e-02
2.268880e-02
2.061790e-02
2.039440e-02
2.201810e-02
2.548920e-02
-1.225260e-03
-1.283650e-03
-2.132310e-04
1.986000e-03
5.314050e-03
4.697650e-03
3.956800e-03
4.233910e-03
5.528980e-03
7.842010e-03
1.112440e-02
9.658010e-03
9.118480e-03
9.505770e-03
1.081990e-02
1.805490e-02
1.582000e-02
1.444050e-02
1.391640e-02
1.424760e-02
2.548920e-02
2.244270e-02
2.019990e-02
1.876070e-02
1.812530e-02
5.314050e-03
1.023790e-02
1.384400e-02
1.613250e-02
1.710330e-02
7.842010e-03
1.237140e-02
1.558570e-02
1.748490e-02
1.806890e-02
1.081990e-02
1.475560e-02
1.743340e-02
1.885320e-02
1.901500e-02
1.424760e-02
1.739030e-02
1.938690e-02
2.023730e-02
1.994170e-02
1.812530e-02
2.027560e-02
2.144640e-02
2.163750e-02
2.084890e-02
1.710330e-02
1.834610e-02
1.961780e-02
2.091840e-02
2.224810e-02
1.806890e-02
1.925410e-02
2.038630e-02
2.146550e-02
2.249170e-02
1.901500e-02
2.015740e-02
2.116270e-02
2.203080e-02
2.276170e-02
1.994170e-02
2.105610e-02
2.194700e-02
2.261430e-02
2.305820e-02
2.084890e-02
2.195000e-02
2.273910e-02
2.321610e-02
2.338120e-02
2.309330e-02
2.286950e-02
2.267280e-02
2.250290e-02
2.236010e-02
2.348320e-02
2.330500e-02
2.314680e-02
2.300880e-02
2.289090e-02
2.386930e-02
2.373210e-02
2.360870e-02
2.349920e-02
2.340340e-02
2.425160e-02
2.415110e-02
2.405850e-02
2.397400e-02
2.389740e-02
2.463000e-02
2.456180e-02
2.449620e-02
2.443330e-02
2.437300e-02
2.236010e-02
2.218620e-02
2.208820e-02
2.206590e-02
2.211930e-02
2.289090e-02
2.271110e-02
2.259670e-02
2.254780e-02
2.256440e-02
2.340340e-02
2.322830e-02
2.310810e-02
2.304270e-02
2.303220e-02
2.389740e-02
2.373790e-02
2.362230e-02
2.355060e-02
2.352270e-02
2.437300e-02
2.423990e-02
2.413940e-02
2.407140e-02
2.403590e-02
2.211930e-02
2.154790e-02
2.128020e-02
2.131620e-02
2.165590e-02
2.256440e-02
2.204900e-02
2.179650e-02
2.180690e-02
2.208030e-02
2.303220e-02
2.258600e-02
2.235960e-02
2.235310e-02
2.256650e-02
2.352270e-02
2.315890e-02
2.296960e-02
2.295490e-02
2.311470e-02
2.403590e-02
2.376770e-02
2.362640e-02
2.361210e-02
2.372470e-02
2.165590e-02
1.929740e-02
1.846150e-02
1.914820e-02
2.135740e-02
2.208030e-02
2.036280e-02
1.974920e-02
2.023960e-02
2.183390e-02
2.256650e-02
2.141660e-02
2.101970e-02
2.137570e-02
2.248450e-02
2.311470e-02
2.245890e-02
2.227280e-02
2.255630e-02
2.330940e-02
2.372470e-02
2.348970e-02
2.350860e-02
2.378160e-02
2.430860e-02
2.135740e-02
2.086890e-02
1.882070e-02
1.521300e-02
1.004560e-02
2.183390e-02
2.325280e-02
2.284590e-02
2.061300e-02
1.655440e-02
2.248450e-02
2.510450e-02
2.599880e-02
2.516730e-02
2.261010e-02
2.330940e-02
2.642410e-02
2.827960e-02
2.887580e-02
2.821290e-02
2.430860e-02
2.721150e-02
2.968810e-02
3.173850e-02
3.336270e-02
1.004560e-02
1.753020e-02
2.213220e-02
2.385180e-02
2.268880e-02
1.655440e-02
2.299330e-02
2.757850e-02
3.031000e-02
3.118780e-02
2.261010e-02
2.832810e-02
3.288310e-02
3.627520e-02
3.850430e-02
2.821290e-02
3.353470e-02
3.804620e-02
4.174730e-02
4.463810e-02
3.336270e-02
3.861310e-02
4.306770e-02
4.672640e-02
4.958940e-02
2.268880e-02
2.061790e-02
2.039440e-02
2.201810e-02
2.548920e-02
3.118780e-02
2.952440e-02
2.892610e-02
2.939300e-02
3.092500e-02
3.850430e-02
3.708440e-02
3.613100e-02
3.564430e-02
3.562410e-02
4.463810e-02
4.329790e-02
4.200930e-02
4.077210e-02
3.958650e-02
4.958940e-02
4.816510e-02
4.656080e-02
4.477650e-02
4.281220e-02
2.548920e-02
2.244270e-02
2.019990e-02
1.876070e-02
1.812530e-02
3.092500e-02
2.780000e-02
2.530980e-02
2.345420e-02
2.223350e-02
3.562410e-02
3.241180e-02
2.969700e-02
2.747970e-02
2.575990e-02
3.958650e-02
3.627800e-02
3.336150e-02
3.083710e-02
2.870480e-02
4.281220e-02
3.939860e-02
3.630340e-02
3.352650e-02
3.106790e-02
1.812530e-02
2.027560e-02
2.144640e-02
2.163750e-02
2.084890e-02
2.223350e-02
2.303750e-02
2.320490e-02
2.273560e-02
2.162970e-02
2.575990e-02
2.544510e-02
2.479220e-02
2.380130e-02
2.247240e-02
2.870480e-02
2.749860e-02
2.620850e-02
2.483460e-02
2.337680e-02
3.106790e-02
2.919780e-02
2.745360e-02
2.583540e-02
2.434300e-02
2.084890e-02
2.195000e-02
2.273910e-02
2.321610e-02
2.338120e-02
2.162970e-02
2.283950e-02
2.360140e-02
2.391570e-02
2.378230e-02
2.247240e-02
2.372130e-02
2.441670e-02
2.455860e-02
2.414680e-02
2.337680e-02
2.459570e-02
2.518500e-02
2.514470e-02
2.447480e-02
2.434300e-02
2.546240e-02
2.590610e-02
2.567400e-02
2.476620e-02
2.463000e-02
2.456180e-02
2.449620e-02
2.443330e-02
2.437300e-02
2.499690e-02
2.495580e-02
2.491650e-02
2.487910e-02
2.484340e-02
2.534870e-02
2.533430e-02
2.532100e-02
2.530890e-02
2.529800e-02
2.568540e-02
2.569720e-02
2.570960e-02
2.572280e-02
2.573660e-02
2.600690e-02
2.604450e-02
2.608240e-02
2.612070e-02
2.615940e-02
2.437300e-02
2.423990e-02
2.413940e-02
2.407140e-02
2.403590e-02
2.484340e-02
2.472170e-02
2.463720e-02
2.459000e-02
2.458010e-02
2.529800e-02
2.518980e-02
2.512250e-02
2.509610e-02
2.511060e-02
2.573660e-02
2.564430e-02
2.559540e-02
2.558980e-02
2.562750e-02
2.615940e-02
2.608520e-02
2.605570e-02
2.607090e-02
2.613080e-02
2.403590e-02
2.376770e-02
2.362640e-02
2.361210e-02
2.372470e-02
2.458010e-02
2.435520e-02
2.426080e-02
2.429680e-02
2.446320e-02
2.511060e-02
2.493030e-02
2.487910e-02
2.495690e-02
2.516380e-02
2.562750e-02
2.549310e-02
2.548150e-02
2.559250e-02
2.582630e-02
2.613080e-02
2.604360e-02
2.606790e-02
2.620360e-02
2.645080e-02
2.372470e-02
2.348970e-02
2.350860e-02
2.378160e-02
2.430860e-02
2.446320e-02
2.435720e-02
2.450990e-02
2.492120e-02
2.559120e-02
2.516380e-02
2.517190e-02
2.542880e-02
2.593450e-02
2.668890e-02
2.582630e-02
2.593370e-02
2.626540e-02
2.682140e-02
2.760160e-02
2.645080e-02
2.664270e-02
2.701970e-02
2.758190e-02
2.832930e-02
2.430860e-02
2.721150e-02
2.968810e-02
3.173850e-02
3.336270e-02
2.559120e-02
2.779000e-02
3.014510e-02
3.265650e-02
3.532410e-02
2.668890e-02
2.836940e-02
3.052050e-02
3.314210e-02
3.623420e-02
2.760160e-02
2.894970e-02
3.081430e-02
3.319540e-02
3.609300e-02
2.832930e-02
2.953080e-02
3.102650e-02
3.281640e-02
3.490030e-02
3.336270e-02
3.861310e-02
4.306770e-02
4.672640e-02
4.958940e-02
3.532410e-02
4.108530e-02
4.593150e-02
4.986260e-02
5.287860e-02
3.623420e-02
4.200040e-02
4.686200e-02
5.081900e-02
5.387150e-02
3.609300e-02
4.135810e-02
4.585900e-02
4.959570e-02
5.256810e-02
3.490030e-02
3.915870e-02
4.292280e-02
4.619260e-02
4.896830e-02
4.958940e-02
4.816510e-02
4.656080e-02
4.477650e-02
4.281220e-02
5.287860e-02
5.162500e-02
4.991770e-02
4.775670e-02
4.514200e-02
5.387150e-02
5.290830e-02
5.132250e-02
4.911410e-02
4.628300e-02
5.256810e-02
5.201510e-02
5.077530e-02
4.884860e-02
4.623500e-02
4.896830e-02
4.894530e-02
4.827600e-02
4.696030e-02
4.499820e-02
4.281220e-02
3.939860e-02
3.630340e-02
3.352650e-02
3.106790e-02
4.514200e-02
4.131860e-02
3.791360e-02
3.492700e-02
3.235870e-02
4.628300e-02
4.237810e-02
3.891770e-02
3.590160e-02
3.332990e-02
4.623500e-02
4.257700e-02
3.931550e-02
3.645030e-02
3.398150e-02
4.499820e-02
4.191540e-02
3.910710e-02
3.657310e-02
3.431350e-02
3.106790e-02
2.919780e-02
2.745360e-02
2.583540e-02
2.434300e-02
3.235870e-02
3.041790e-02
2.865380e-02
2.706630e-02
2.565550e-02
3.332990e-02
3.137840e-02
2.964200e-02
2.812070e-02
2.681440e-02
3.398150e-02
3.207950e-02
3.041840e-02
2.899840e-02
2.781940e-02
3.431350e-02
3.252100e-02
3.098300e-02
2.969960e-02
2.867080e-02
2.434300e-02
2.546240e-02
2.590610e-02
2.567400e-02
2.476620e-02
2.565550e-02
2.618180e-02
2.628410e-02
2.596270e-02
2.521740e-02
2.681440e-02
2.681940e-02
2.662890e-02
2.624300e-02
2.566170e-02
2.781940e-02
2.737520e-02
2.694040e-02
2.651510e-02
2.609920e-02
2.867080e-02
2.784930e-02
2.721860e-02
2.677880e-02
2.652980e-02
2.600690e-02
2.604450e-02
2.608240e-02
2.612070e-02
2.615940e-02
2.630990e-02
2.637180e-02
2.643290e-02
2.649320e-02
2.655280e-02
2.659390e-02
2.667880e-02
2.676160e-02
2.684230e-02
2.692080e-02
2.685910e-02
2.696570e-02
2.706860e-02
2.716780e-02
2.726340e-02
2.710540e-02
2.723230e-02
2.735380e-02
2.746990e-02
2.758050e-02
2.615940e-02
2.608520e-02
2.605570e-02
2.607090e-02
2.613080e-02
2.655280e-02
2.650650e-02
2.649870e-02
2.652950e-02
2.659890e-02
2.692080e-02
2.690090e-02
2.691380e-02
2.695970e-02
2.703840e-02
2.726340e-02
2.726840e-02
2.730110e-02
2.736140e-02
2.744940e-02
2.758050e-02
2.760910e-02
2.766050e-02
2.773470e-02
2.783180e-02
2.613080e-02
2.604360e-02
2.606790e-02
2.620360e-02
2.645080e-02
2.659890e-02
2.656230e-02
2.661850e-02
2.676750e-02
2.700930e-02
2.703840e-02
2.704390e-02
2.712710e-02
2.728790e-02
2.752640e-02
2.744940e-02
2.748860e-02
2.759370e-02
2.776490e-02
2.800200e-02
2.783180e-02
2.789620e-02
2.801840e-02
2.819830e-02
2.843610e-02
2.645080e-02
2.664270e-02
2.701970e-02
2.758190e-02
2.832930e-02
2.700930e-02
2.727170e-02
2.768260e-02
2.824200e-02
2.894990e-02
2.752640e-02
2.783340e-02
2.826200e-02
2.881230e-02
2.948420e-02
2.800200e-02
2.832770e-02
2.875800e-02
2.929290e-02
2.993230e-02
2.843610e-02
2.875480e-02
2.917060e-02
2.968370e-02
3.029400e-02
2.832930e-02
2.953080e-02
3.102650e-02
3.281640e-02
3.490030e-02
2.894990e-02
3.010630e-02
3.144910e-02
3.297830e-02
3.469390e-02
2.948420e-02
3.059130e-02
3.180660e-02
3.313000e-02
3.456160e-02
2.993230e-02
3.098590e-02
3.209900e-02
3.327150e-02
3.450330e-02
3.029400e-02
3.129010e-02
3.232630e-02
3.340270e-02
3.451910e-02
3.490030e-02
3.915870e-02
4.292280e-02
4.619260e-02
4.896830e-02
3.469390e-02
3.800270e-02
4.097020e-02
4.359660e-02
4.588180e-02
3.456160e-02
3.710940e-02
3.942510e-02
4.150860e-02
4.336000e-02
3.450330e-02
3.647890e-02
3.828740e-02
3.992870e-02
4.140280e-02
3.451910e-02
3.611120e-02
3.755710e-02
3.885680e-02
4.001040e-02
4.896830e-02
4.894530e-02
4.827600e-02
4.696030e-02
4.499820e-02
4.588180e-02
4.614140e-02
4.584280e-02
4.498600e-02
4.357110e-02
4.336000e-02
4.378640e-02
4.373720e-02
4.321220e-02
4.221140e-02
4.140280e-02
4.188040e-02
4.195900e-02
4.163860e-02
4.091920e-02
4.001040e-02
4.042340e-02
4.050850e-02
4.026540e-02
3.969440e-02
4.499820e-02
4.191540e-02
3.910710e-02
3.657310e-02
3.431350e-02
4.357110e-02
4.104410e-02
3.868900e-02
3.650590e-02
3.449460e-02
4.221140e-02
4.016690e-02
3.821350e-02
3.635130e-02
3.458030e-02
4.091920e-02
3.928380e-02
3.768060e-02
3.610950e-02
3.457060e-02
3.969440e-02
3.839480e-02
3.709010e-02
3.578030e-02
3.446550e-02
3.431350e-02
3.252100e-02
3.098300e-02
2.969960e-02
2.867080e-02
3.449460e-02
3.282920e-02
3.138880e-02
3.017350e-02
2.918320e-02
3.458030e-02
3.304020e-02
3.169580e-02
3.054720e-02
2.959440e-02
3.457060e-02
3.315390e-02
3.190390e-02
3.082070e-02
2.990420e-02
3.446550e-02
3.317040e-02
3.201320e-02
3.099400e-02
3.011280e-02
2.867080e-02
2.784930e-02
2.721860e-02
2.677880e-02
2.652980e-02
2.918320e-02
2.833160e-02
2.765940e-02
2.716660e-02
2.685320e-02
2.959440e-02
2.873730e-02
2.804330e-02
2.751240e-02
2.714440e-02
2.990420e-02
2.906640e-02
2.837030e-02
2.781600e-02
2.740340e-02
3.011280e-02
2.931880e-02
2.864040e-02
2.807760e-02
2.763030e-02
2.710540e-02
2.723230e-02
2.735380e-02
2.746990e-02
2.758050e-02
2.733260e-02
2.747330e-02
2.760860e-02
2.773850e-02
2.786300e-02
2.754220e-02
2.769490e-02
2.784180e-02
2.798310e-02
2.811860e-02
2.773410e-02
2.789690e-02
2.805340e-02
2.820360e-02
2.834740e-02