<?xml version="1.0"?>
<VTKFile type="UnstructuredGrid" version="0.1" byte_order="LittleEndian" compressor="vtkZLibDataCompressor">
<UnstructuredGrid>
<Piece NumberOfPoints="2500" NumberOfCells="1600">
<Points>
<DataArray type="Float32" NumberOfComponents="3" format="ascii">
-3.630000e+00 0.000000e+00 0.000000e+00
-3.448500e+00 0.000000e+00 0.000000e+00
-3.267000e+00 0.000000e+00 0.000000e+00
-3.085500e+00 0.000000e+00 0.000000e+00
-2.904000e+00 0.000000e+00 0.000000e+00
-3.630000e+00 1.282500e-01 0.000000e+00
-3.448500e+00 1.282500e-01 0.000000e+00
-3.267000e+00 1.282500e-01 0.000000e+00
-3.085500e+00 1.282500e-01 0.000000e+00
-2.904000e+00 1.282500e-01 0.000000e+00
-3.630000e+00 2.565000e-01 0.000000e+00
-3.448500e+00 2.565000e-01 0.000000e+00
-3.267000e+00 2.565000e-01 0.000000e+00
-3.085500e+00 2.565000e-01 0.000000e+00
-2.904000e+00 2.565000e-01 0.000000e+00
-3.630000e+00 3.847500e-01 0.000000e+00
-3.448500e+00 3.847500e-01 0.000000e+00
-3.267000e+00 3.847500e-01 0.000000e+00
-3.085500e+00 3.847500e-01 0.000000e+00
-2.904000e+00 3.847500e-01 0.000000e+00
-3.630000e+00 5.130000e-01 0.000000e+00
-3.448500e+00 5.130000e-01 0.000000e+00
-3.267000e+00 5.130000e-01 0.000000e+00
-3.085500e+00 5.130000e-01 0.000000e+00
-2.904000e+00 5.130000e-01 0.000000e+00
-2.904000e+00 0.000000e+00 0.000000e+00
-2.722500e+00 0.000000e+00 0.000000e+00
-2.541000e+00 0.000000e+00 0.000000e+00
-2.359500e+00 0.000000e+00 0.000000e+00
-2.178000e+00 0.000000e+00 0.000000e+00
-2.904000e+00 1.282500e-01 0.000000e+00
-2.722500e+00 1.282500e-01 0.000000e+00
-2.541000e+00 1.282500e-01 0.000000e+00
-2.359500e+00 1.282500e-01 0.000000e+00
-2.178000e+00 1.282500e-01 0.000000e+00
-2.904000e+00 2.565000e-01 0.000000e+00
-2.722500e+00 2.565000e-01 0.000000e+00
-2.541000e+00 2.565000e-01 0.000000e+00
-2.359500e+00 2.565000e-01 0.000000e+00
-2.178000e+00 2.565000e-01 0.000000e+00
-2.904000e+00 3.847500e-01 0.000000e+00
-2.722500e+00 3.847500e-01 0.000000e+00
-2.541000e+00 3.847500e-01 0.000000e+00
-2.359500e+00 3.847500e-01 0.000000e+00
-2.178000e+00 3.847500e-01 0.000000e+00
-2.904000e+00 5.130000e-01 0.000000e+00
-2.722500e+00 5.130000e-01 0.000000e+00
-2.541000e+00 5.130000e-01 0.000000e+00
-2.359500e+00 5.130000e-01 0.000000e+00
-2.178000e+00 5.130000e-01 0.000000e+00
-2.178000e+00 0.000000e+00 0.000000e+00
-1.996500e+00 0.000000e+00 0.000000e+00
-1.815000e+00 0.000000e+00 0.000000e+00
-1.633500e+00 0.000000e+00 0.000000e+00
-1.452000e+00 0.000000e+00 0.000000e+00
-2.178000e+00 1.282500e-01 0.000000e+00
-1.996500e+00 1.282500e-01 0.000000e+00
-1.815000e+00 1.282500e-01 0.000000e+00
-1.633500e+00 1.282500e-01 0.000000e+00
-1.452000e+00 1.282500e-01 0.000000e+00
-2.178000e+00 2.565000e-01 0.000000e+00
-1.996500e+00 2.565000e-01 0.000000e+00
-1.815000e+00 2.565000e-01 0.000000e+00
-1.633500e+00 2.565000e-01 0.000000e+00
-1.452000e+00 2.565000e-01 0.000000e+00
-2.178000e+00 3.847500e-01 0.000000e+00
-1.996500e+00 3.847500e-01 0.000000e+00
-1.815000e+00 3.847500e-01 0.000000e+00
-1.633500e+00 3.847500e-01 0.000000e+00
-1.452000e+00 3.847500e-01 0.000000e+00
-2.178000e+00 5.130000e-01 0.000000e+00
-1.996500e+00 5.130000e-01 0.000000e+00
-1.815000e+00 5.130000e-01 0.000000e+00
-1.633500e+00 5.130000e-01 0.000000e+00
-1.452000e+00 5.130000e-01 0.000000e+00
-1.452000e+00 0.000000e+00 0.000000e+00
-1.270500e+00 0.000000e+00 0.000000e+00
-1.089000e+00 0.000000e+00 0.000000e+00
-9.075000e-01 0.000000e+00 0.000000e+00
-7.260000e-01 0.000000e+00 0.000000e+00
-1.452000e+00 1.282500e-01 0.000000e+00
-1.270500e+00 1.282500e-01 0.000000e+00
-1.089000e+00 1.282500e-01 0.000000e+00
-9.075000e-01 1.282500e-01 0.000000e+00
-7.260000e-01 1.282500e-01 0.000000e+00
-1.452000e+00 2.565000e-01 0.000000e+00
-1.270500e+00 2.565000e-01 0.000000e+00
-1.089000e+00 2.565000e-01 0.000000e+00
-9.075000e-01 2.565000e-01 0.000000e+00
-7.260000e-01 2.565000e-01 0.000000e+00
-1.452000e+00 3.847500e-01 0.000000e+00
-1.270500e+00 3.847500e-01 0.000000e+00
-1.089000e+00 3.847500e-01 0.000000e+00
-9.075000e-01 3.847500e-01 0.000000e+00
-7.260000e-01 3.847500e-01 0.000000e+00
-1.452000e+00 5.130000e-01 0.000000e+00
-1.270500e+00 5.130000e-01 0.000000e+00
-1.089000e+00 5.130000e-01 0.000000e+00
-9.075000e-01 5.130000e-01 0.000000e+00
-7.260000e-01 5.130000e-01 0.000000e+00
-7.260000e-01 0.000000e+00 0.000000e+00
-5.445000e-01 0.000000e+00 0.000000e+00
-3.630000e-01 0.000000e+00 0.000000e+00
-1.815000e-01 0.000000e+00 0.000000e+00
0.000000e+00 0.000000e+00 0.000000e+00
-7.260000e-01 1.282500e-01 0.000000e+00
-5.445000e-01 1.282500e-01 0.000000e+00
-3.630000e-01 1.282500e-01 0.000000e+00
-1.815000e-01 1.282500e-01 0.000000e+00
0.000000e+00 1.282500e-01 0.000000e+00
-7.260000e-01 2.565000e-01 0.000000e+00
-5.445000e-01 2.565000e-01 0.000000e+00
-3.630000e-01 2.565000e-01 0.000000e+00
-1.815000e-01 2.565000e-01 0.000000e+00
0.000000e+00 2.565000e-01 0.000000e+00
-7.260000e-01 3.847500e-01 0.000000e+00
-5.445000e-01 3.847500e-01 0.000000e+00
-3.630000e-01 3.847500e-01 0.000000e+00
-1.815000e-01 3.847500e-01 0.000000e+00
0.000000e+00 3.847500e-01 0.000000e+00
-7.260000e-01 5.130000e-01 0.000000e+00
-5.445000e-01 5.130000e-01 0.000000e+00
-3.630000e-01 5.130000e-01 0.000000e+00
-1.815000e-01 5.130000e-01 0.000000e+00
0.000000e+00 5.130000e-01 0.000000e+00
0.000000e+00 0.000000e+00 0.000000e+00
1.815000e-01 0.000000e+00 0.000000e+00
3.630000e-01 0.000000e+00 0.000000e+00
5.445000e-01 0.000000e+00 0.000000e+00
7.260000e-01 0.000000e+00 0.000000e+00
0.000000e+00 1.282500e-01 0.000000e+00
1.815000e-01 1.282500e-01 0.000000e+00
3.630000e-01 1.282500e-01 0.000000e+00
5.445000e-01 1.282500e-01 0.000000e+00
7.260000e-01 1.282500e-01 0.000000e+00
0.000000e+00 2.565000e-01 0.000000e+00
1.815000e-01 2.565000e-01 0.000000e+00
3.630000e-01 2.565000e-01 0.000000e+00
5.445000e-01 2.565000e-01 0.000000e+00
7.260000e-01 2.565000e-01 0.000000e+00
0.000000e+00 3.847500e-01 0.000000e+00
1.815000e-01 3.847500e-01 0.000000e+00
3.630000e-01 3.847500e-01 0.000000e+00
5.445000e-01 3.847500e-01 0.000000e+00
7.260000e-01 3.847500e-01 0.000000e+00
0.000000e+00 5.130000e-01 0.000000e+00
1.815000e-01 5.130000e-01 0.000000e+00
3.630000e-01 5.130000e-01 0.000000e+00
5.445000e-01 5.130000e-01 0.000000e+00
7.260000e-01 5.130000e-01 0.000000e+00
7.260000e-01 0.000000e+00 0.000000e+00
9.075000e-01 0.000000e+00 0.000000e+00
1.089000e+00 0.000000e+00 0.000000e+00
1.270500e+00 0.000000e+00 0.000000e+00
1.452000e+00 0.000000e+00 0.000000e+00
7.260000e-01 1.282500e-01 0.000000e+00
9.075000e-01 1.282500e-01 0.000000e+00
1.089000e+00 1.282500e-01 0.000000e+00
1.270500e+00 1.282500e-01 0.000000e+00
1.452000e+00 1.282500e-01 0.000000e+00
7.260000e-01 2.565000e-01 0.000000e+00
9.075000e-01 2.565000e-01 0.000000e+00
1.089000e+00 2.565000e-01 0.000000e+00
1.270500e+00 2.565000e-01 0.000000e+00
1.452000e+00 2.565000e-01 0.000000e+00
7.260000e-01 3.847500e-01 0.000000e+00
9.075000e-01 3.847500e-01 0.000000e+00
1.089000e+00 3.847500e-01 0.000000e+00
1.270500e+00 3.847500e-01 0.000000e+00
1.452000e+00 3.847500e-01 0.000000e+00
7.260000e-01 5.130000e-01 0.000000e+00
9.075000e-01 5.130000e-01 0.000000e+00
1.089000e+00 5.130000e-01 0.000000e+00
1.270500e+00 5.130000e-01 0.000000e+00
1.452000e+00 5.130000e-01 0.000000e+00
1.452000e+00 0.000000e+00 0.000000e+00
1.633500e+00 0.000000e+00 0.000000e+00
1.815000e+00 0.000000e+00 0.000000e+00
1.996500e+00 0.000000e+00 0.000000e+00
2.178000e+00 0.000000e+00 0.000000e+00
1.452000e+00 1.282500e-01 0.000000e+00
1.633500e+00 1.282500e-01 0.000000e+00
1.815000e+00 1.282500e-01 0.000000e+00
1.996500e+00 1.282500e-01 0.000000e+00
2.178000e+00 1.282500e-01 0.000000e+00
1.452000e+00 2.565000e-01 0.000000e+00
1.633500e+00 2.565000e-01 0.000000e+00
1.815000e+00 2.565000e-01 0.000000e+00
1.996500e+00 2.565000e-01 0.000000e+00
2.178000e+00 2.565000e-01 0.000000e+00
1.452000e+00 3.847500e-01 0.000000e+00
1.633500e+00 3.847500e-01 0.000000e+00
1.815000e+00 3.847500e-01 0.000000e+00
1.996500e+00 3.847500e-01 0.000000e+00
2.178000e+00 3.847500e-01 0.000000e+00
1.452000e+00 5.130000e-01 0.000000e+00
1.633500e+00 5.130000e-01 0.000000e+00
1.815000e+00 5.130000e-01 0.000000e+00
1.996500e+00 5.130000e-01 0.000000e+00
2.178000e+00 5.130000e-01 0.000000e+00
2.178000e+00 0.000000e+00 0.000000e+00
2.359500e+00 0.000000e+00 0.000000e+00
2.541000e+00 0.000000e+00 0.000000e+00
2.722500e+00 0.000000e+00 0.000000e+00
2.904000e+00 0.000000e+00 0.000000e+00
2.178000e+00 1.282500e-01 0.000000e+00
2.359500e+00 1.282500e-01 0.000000e+00
2.541000e+00 1.282500e-01 0.000000e+00
2.722500e+00 1.282500e-01 0.000000e+00
2.904000e+00 1.282500e-01 0.000000e+00
2.178000e+00 2.565000e-01 0.000000e+00
2.359500e+00 2.565000e-01 0.000000e+00
2.541000e+00 2.565000e-01 0.000000e+00
2.722500e+00 2.565000e-01 0.000000e+00
2.904000e+00 2.565000e-01 0.000000e+00
2.178000e+00 3.847500e-01 0.000000e+00
2.359500e+00 3.847500e-01 0.000000e+00
2.541000e+00 3.847500e-01 0.000000e+00
2.722500e+00 3.847500e-01 0.000000e+00
2.904000e+00 3.847500e-01 0.000000e+00
2.178000e+00 5.130000e-01 0.000000e+00
2.359500e+00 5.130000e-01 0.000000e+00
2.541000e+00 5.130000e-01 0.000000e+00
2.722500e+00 5.130000e-01 0.000000e+00
2.904000e+00 5.130000e-01 0.000000e+00
2.904000e+00 0.000000e+00 0.000000e+00
3.085500e+00 0.000000e+00 0.000000e+00
3.267000e+00 0.000000e+00 0.000000e+00
3.448500e+00 0.000000e+00 0.000000e+00
3.630000e+00 0.000000e+00 0.000000e+00
2.904000e+00 1.282500e-01 0.000000e+00
3.085500e+00 1.282500e-01 0.000000e+00
3.267000e+00 1.282500e-01 0.000000e+00
3.448500e+00 1.282500e-01 0.000000e+00
3.630000e+00 1.282500e-01 0.000000e+00
2.904000e+00 2.565000e-01 0.000000e+00
3.085500e+00 2.565000e-01 0.000000e+00
3.267000e+00 2.565000e-01 0.000000e+00
3.448500e+00 2.565000e-01 0.000000e+00
3.630000e+00 2.565000e-01 0.000000e+00
2.904000e+00 3.847500e-01 0.000000e+00
3.085500e+00 3.847500e-01 0.000000e+00
3.267000e+00 3.847500e-01 0.000000e+00
3.448500e+00 3.847500e-01 0.000000e+00
3.630000e+00 3.847500e-01 0.000000e+00
2.904000e+00 5.130000e-01 0.000000e+00
[...]
<PointData>
<DataArray type="Float32" Name="V1" format="ascii">
2.018460e-02
1.940210e-02
1.843910e-02
1.729560e-02
1.597150e-02
2.021030e-02
1.943830e-02
1.849070e-02
1.736740e-02
1.606850e-02
2.028400e-02
1.952470e-02
1.860250e-02
1.751750e-02
1.626980e-02
2.040560e-02
1.966110e-02
1.877450e-02
1.774590e-02
1.657520e-02
2.057510e-02
1.984760e-02
1.900670e-02
1.805250e-02
1.698490e-02
1.597150e-02
1.495530e-02
1.315960e-02
1.058450e-02
7.229890e-03
1.606850e-02
1.498940e-02
1.321350e-02
1.074080e-02
7.571280e-03
1.626980e-02
1.511600e-02
1.338610e-02
1.108010e-02
8.197830e-03
1.657520e-02
1.533510e-02
1.367740e-02
1.160220e-02
9.109550e-03
1.698490e-02
1.564650e-02
1.408730e-02
1.230730e-02
1.030640e-02
7.229890e-03
1.560660e-03
-1.540160e-03
-2.072590e-03
-3.661220e-05
7.571280e-03
2.027330e-03
-1.033420e-03
-1.610990e-03
2.946400e-04
8.197830e-03
2.797110e-03
-1.727520e-04
-7.117520e-04
1.180110e-03
9.109550e-03
3.870000e-03
1.041850e-03
6.251160e-04
2.619790e-03
1.030640e-02
5.245990e-03
2.610380e-03
2.399620e-03
4.613690e-03
-3.661220e-05
-1.610740e-02
-3.072600e-02
-4.389230e-02
-5.560640e-02
2.946400e-04
-1.461250e-02
-2.827830e-02
-4.070290e-02
-5.188620e-02
1.180110e-03
-1.259050e-02
-2.543850e-02
-3.736390e-02
-4.836690e-02
2.619790e-03
-1.004140e-02
-2.220650e-02
-3.387550e-02
-4.504840e-02
4.613690e-03
-6.965250e-03
-1.858230e-02
-3.023750e-02
-4.193080e-02
-5.560640e-02
-6.207550e-02
-6.861890e-02
-7.523660e-02
-8.192850e-02
-5.188620e-02
-6.116840e-02
-7.050480e-02
-7.989540e-02
-8.934010e-02
-4.836690e-02
-5.974400e-02
-7.121450e-02
-8.277860e-02
-9.443610e-02
-4.504840e-02
-5.780210e-02
-7.074800e-02
-8.388610e-02
-9.721640e-02
-4.193080e-02
-5.534280e-02
-6.910520e-02
-8.321790e-02
-9.768100e-02
-8.192850e-02
-7.296450e-02
-6.299270e-02
-5.201310e-02
-4.002590e-02
-8.934010e-02
-7.956080e-02
-6.812190e-02
-5.502350e-02
-4.026560e-02
-9.443610e-02
-8.398290e-02
-7.136750e-02
-5.658980e-02
-3.965000e-02
-9.721640e-02
-8.623080e-02
-7.272940e-02
-5.671210e-02
-3.817890e-02
-9.768100e-02
-8.630450e-02
-7.220760e-02
-5.539020e-02
-3.585250e-02
-4.002590e-02
-3.216890e-02
-2.477180e-02
-1.783460e-02
-1.135730e-02
-4.026560e-02
-3.153490e-02
-2.379440e-02
-1.704410e-02
-1.128400e-02
-3.965000e-02
-2.985190e-02
-2.177380e-02
-1.541570e-02
-1.077740e-02
-3.817890e-02
-2.712000e-02
-1.871010e-02
-1.294920e-02
-9.837410e-03
-3.585250e-02
-2.333900e-02
-1.460310e-02
-9.644820e-03
-8.464060e-03
-1.135730e-02
-2.980320e-03
3.182710e-03
7.131810e-03
8.866990e-03
-1.128400e-02
-2.919910e-03
3.257890e-03
7.249380e-03
9.054560e-03
-1.077740e-02
-2.422890e-03
3.748860e-03
7.737850e-03
9.544090e-03
-9.837410e-03
-1.489280e-03
4.655590e-03
8.597210e-03
1.033560e-02
-8.464060e-03
-1.190710e-04
5.978110e-03
9.827470e-03
1.142900e-02
8.866990e-03
1.134060e-02
1.351670e-02
1.539550e-02
1.697690e-02
9.054560e-03
1.144710e-02
1.356410e-02
1.540560e-02
1.697160e-02
9.544090e-03
1.177310e-02
1.376770e-02
1.552780e-02
1.705340e-02
1.033560e-02
1.231870e-02
1.412750e-02
1.576210e-02
1.722230e-02
1.142900e-02
1.308380e-02
1.464370e-02
1.610860e-02
1.747850e-02
1.697690e-02
1.826610e-02
1.945990e-02
2.055850e-02
2.156180e-02
1.697160e-02
1.827980e-02
1.948150e-02
2.057670e-02
2.156530e-02
1.705340e-02
1.837310e-02
1.957300e-02
2.065330e-02
2.161390e-02
1.722230e-02
1.854580e-02
1.973450e-02
2.078850e-02
2.170760e-02
1.747850e-02
1.879810e-02
1.996590e-02
2.098210e-02
2.184650e-02
2.057510e-02
1.984760e-02
1.900670e-02
1.805250e-02
1.698490e-02
2.078850e-02
2.008160e-02
1.930290e-02
1.845240e-02
1.753010e-02
2.103660e-02
2.034700e-02
1.963620e-02
1.890420e-02
1.815090e-02
2.131930e-02
2.064390e-02
2.000680e-02
1.940800e-02
1.884740e-02
2.163650e-02
2.097210e-02
2.041450e-02
1.996370e-02
1.961960e-02
1.698490e-02
1.564650e-02
1.408730e-02
1.230730e-02
1.030640e-02
1.753010e-02
1.614440e-02
1.472770e-02
1.328000e-02
1.180140e-02
1.815090e-02
1.671030e-02
1.544680e-02
1.436050e-02
1.345120e-02
1.884740e-02
1.734440e-02
1.624480e-02
1.554860e-02
1.525580e-02
1.961960e-02
1.804670e-02
1.712170e-02
1.684450e-02
1.721530e-02
1.030640e-02
5.245990e-03
2.610380e-03
2.399620e-03
4.613690e-03
1.180140e-02
6.773230e-03
4.457730e-03
4.854940e-03
7.964850e-03
1.345120e-02
8.384160e-03
6.408540e-03
7.524360e-03
1.173160e-02
1.525580e-02
1.007880e-02
8.462800e-03
1.040790e-02
1.591400e-02
1.721530e-02
1.185710e-02
1.062050e-02
1.350550e-02
2.051200e-02
4.613690e-03
-6.965250e-03
-1.858230e-02
-3.023750e-02
-4.193080e-02
7.964850e-03
-3.226240e-03
-1.348880e-02
-2.282280e-02
-3.122820e-02
1.173160e-02
1.138930e-03
-7.503030e-03
-1.419420e-02
-1.893470e-02
1.591400e-02
6.130240e-03
-6.250570e-04
-4.351870e-03
-5.050210e-03
2.051200e-02
1.174770e-02
7.145130e-03
6.704310e-03
1.042530e-02
-4.193080e-02
-5.534280e-02
-6.910520e-02
-8.321790e-02
-9.768100e-02
-3.122820e-02
-4.413940e-02
-5.873590e-02
-7.501780e-02
-9.298510e-02
-1.893470e-02
-2.998770e-02
-4.297590e-02
-5.789930e-02
-7.475780e-02
-5.050210e-03
-1.288800e-02
-2.182550e-02
-3.186260e-02
-4.299930e-02
1.042530e-02
7.159820e-03
4.715560e-03
3.092470e-03
2.290540e-03
-9.768100e-02
-8.630450e-02
-7.220760e-02
-5.539020e-02
-3.585250e-02
-9.298510e-02
-7.798540e-02
-6.277360e-02
-4.734970e-02
-3.171350e-02
-7.475780e-02
-5.996390e-02
-4.648370e-02
-3.431720e-02
-2.346440e-02
-4.299930e-02
-3.223990e-02
-2.333760e-02
-1.629270e-02
-1.110500e-02
2.290540e-03
5.186650e-03
6.664380e-03
6.723720e-03
5.364680e-03
-3.585250e-02
-2.333900e-02
-1.460310e-02
-9.644820e-03
-8.464060e-03
-3.171350e-02
-1.945170e-02
-1.136560e-02
-7.455170e-03
-7.720410e-03
-2.346440e-02
-1.284830e-02
-6.395930e-03
-4.107310e-03
-5.982420e-03
-1.110500e-02
-3.528680e-03
3.059060e-04
3.987670e-04
-3.250090e-03
5.364680e-03
8.507110e-03
8.739900e-03
6.063050e-03
4.765650e-04
-8.464060e-03
-1.190710e-04
5.978110e-03
9.827470e-03
1.142900e-02
-7.720410e-03
1.572680e-03
8.076720e-03
1.179170e-02
1.271760e-02
-5.982420e-03
3.708050e-03
1.029910e-02
1.379080e-02
1.418300e-02
-3.250090e-03
6.287020e-03
1.264530e-02
1.582470e-02
1.582520e-02
4.765650e-04
9.309600e-03
1.511520e-02
1.789340e-02
1.764420e-02
1.142900e-02
1.308380e-02
1.464370e-02
1.610860e-02
1.747850e-02
1.271760e-02
1.387910e-02
1.510340e-02
1.639050e-02
1.774030e-02
1.418300e-02
1.484050e-02
1.570750e-02
1.678400e-02
1.807010e-02
1.582520e-02
1.596780e-02
1.645580e-02
1.728920e-02
1.846800e-02
1.764420e-02
1.726130e-02
1.734860e-02
1.790610e-02
1.893390e-02
1.747850e-02
1.879810e-02
1.996590e-02
2.098210e-02
2.184650e-02
1.774030e-02
1.911340e-02
2.026990e-02
2.120970e-02
2.193280e-02
1.807010e-02
1.948340e-02
2.061890e-02
2.147660e-02
2.205650e-02
1.846800e-02
1.990810e-02
2.101300e-02
2.178290e-02
2.221760e-02
1.893390e-02
2.038740e-02
2.145230e-02
2.212850e-02
2.241600e-02
2.163650e-02
2.097210e-02
2.041450e-02
1.996370e-02
1.961960e-02
2.197900e-02
2.134870e-02
2.088170e-02
2.057810e-02
2.043770e-02
2.233590e-02
2.175750e-02
2.137840e-02
2.119860e-02
2.121810e-02
2.270730e-02
2.219850e-02
2.190440e-02
2.182520e-02
2.196080e-02
2.309330e-02
2.267170e-02
2.245980e-02
2.245790e-02
2.266570e-02
1.961960e-02
1.804670e-02
1.712170e-02
1.684450e-02
1.721530e-02
2.043770e-02
1.878230e-02
1.801640e-02
1.813990e-02
1.915300e-02
2.121810e-02
1.956760e-02
1.895470e-02
1.937940e-02
2.084180e-02
2.196080e-02
2.040260e-02
1.993670e-02
2.056300e-02
2.228160e-02
2.266570e-02
2.128730e-02
2.096230e-02
2.169070e-02
2.347260e-02
1.721530e-02
1.185710e-02
1.062050e-02
1.350550e-02
2.051200e-02
1.915300e-02
1.380250e-02
1.287810e-02
1.637960e-02
2.430700e-02
2.084180e-02
1.586420e-02
1.525750e-02
1.902160e-02
2.715660e-02
2.228160e-02
1.804210e-02
1.775880e-02
2.143170e-02
2.906080e-02
2.347260e-02
2.033620e-02
2.038200e-02
2.360970e-02
3.001950e-02
2.051200e-02
1.174770e-02
7.145130e-03
6.704310e-03
1.042530e-02
2.430700e-02
1.653200e-02
1.407600e-02
1.693910e-02
2.512120e-02
2.715660e-02
2.093220e-02
2.019130e-02
2.493380e-02
3.515970e-02
2.906080e-02
2.494850e-02
2.549100e-02
3.068840e-02
4.054070e-02
3.001950e-02
2.858070e-02
2.997520e-02
3.420300e-02
4.126420e-02
1.042530e-02
7.159820e-03
4.715560e-03
3.092470e-03
2.290540e-03
2.512120e-02
2.940290e-02
3.439290e-02
4.009100e-02
4.649750e-02
3.515970e-02
4.532300e-02
5.562220e-02
6.605740e-02
7.662860e-02
4.054070e-02
5.492000e-02
6.840370e-02
8.099160e-02
9.268380e-02
4.126420e-02
5.819410e-02
7.273720e-02
8.489360e-02
9.466320e-02
2.290540e-03
5.186650e-03
6.664380e-03
6.723720e-03
5.364680e-03
4.649750e-02
3.960140e-02
3.279140e-02
2.606740e-02
1.942960e-02
7.662860e-02
6.432600e-02
5.269780e-02
4.174400e-02
3.146450e-02
9.268380e-02
7.936050e-02
6.638370e-02
5.375340e-02
4.146950e-02
9.466320e-02
8.470490e-02
7.384900e-02
6.209560e-02
4.944470e-02
5.364680e-03
8.507110e-03
8.739900e-03
6.063050e-03
4.765650e-04
1.942960e-02
1.914700e-02
1.686380e-02
1.258010e-02
6.295890e-03
3.146450e-02
2.801780e-02
2.356020e-02
1.809170e-02
1.161220e-02
4.146950e-02
3.511970e-02
2.882910e-02
2.259770e-02
1.642550e-02
4.944470e-02
4.045260e-02
3.267040e-02
2.609810e-02
2.073570e-02
4.765650e-04
9.309600e-03
1.511520e-02
1.789340e-02
1.764420e-02
6.295890e-03
1.271130e-02
1.698860e-02
1.912790e-02
1.912900e-02
1.161220e-02
1.596270e-02
1.889990e-02
2.042390e-02
2.053470e-02
1.642550e-02
1.906370e-02
2.084920e-02
2.178170e-02
2.186140e-02
2.073570e-02
2.201450e-02
2.283630e-02
2.320110e-02
2.310890e-02
1.764420e-02
1.726130e-02
1.734860e-02
1.790610e-02
1.893390e-02
1.912900e-02
1.857410e-02
1.844870e-02
1.875270e-02
1.948610e-02
2.053470e-02
1.984360e-02
1.953840e-02
1.961910e-02
2.008580e-02
2.186140e-02
2.106950e-02
2.061750e-02
2.050540e-02
2.073300e-02
2.310890e-02
2.225200e-02
2.168620e-02
2.141140e-02
2.142770e-02
1.893390e-02
2.038740e-02
2.145230e-02
2.212850e-02
2.241600e-02
1.948610e-02
2.086220e-02
2.185100e-02
2.245240e-02
2.266650e-02
2.008580e-02
2.136460e-02
2.226410e-02
2.278450e-02
2.292580e-02
2.073300e-02
2.189440e-02
2.269170e-02
2.312480e-02
2.319370e-02
2.142770e-02
2.245190e-02
2.313370e-02
2.347320e-02
2.347030e-02
2.309330e-02
2.267170e-02
2.245980e-02
2.245790e-02
2.266570e-02
2.348320e-02
2.313570e-02
2.298670e-02
2.303630e-02
2.328450e-02
2.386930e-02
2.359020e-02
2.349900e-02
2.359570e-02
2.388050e-02
2.425160e-02
2.403510e-02
2.399660e-02
2.413610e-02
2.445350e-02
2.463000e-02
2.447050e-02
2.447960e-02
2.465730e-02
2.500370e-02
2.266570e-02
2.128730e-02
2.096230e-02
2.169070e-02
2.347260e-02
2.328450e-02
2.220190e-02
2.201490e-02
2.272360e-02
2.432810e-02
2.388050e-02
2.308240e-02
2.302170e-02
2.369840e-02
2.511250e-02
2.445350e-02
2.392880e-02
2.398260e-02
2.461490e-02
2.582580e-02
2.500370e-02
2.474110e-02
2.489760e-02
2.547320e-02
2.646800e-02
2.347260e-02
2.033620e-02
2.038200e-02
2.360970e-02
3.001950e-02
2.432810e-02
2.235050e-02
2.271610e-02
2.542510e-02
3.047730e-02
2.511250e-02
2.416190e-02
2.480520e-02
2.704250e-02
3.087360e-02
2.582580e-02
2.577060e-02
2.664920e-02
2.846180e-02
3.120820e-02
2.646800e-02
2.717650e-02
2.824820e-02
2.968310e-02
3.148120e-02
3.001950e-02
2.858070e-02
2.997520e-02
3.420300e-02
4.126420e-02
3.047730e-02
3.130080e-02
3.369750e-02
3.766760e-02
4.321100e-02
3.087360e-02
3.327610e-02
3.635250e-02
4.010280e-02
4.452690e-02
3.120820e-02
3.450670e-02
3.794010e-02
4.150850e-02
4.521180e-02
3.148120e-02
3.499250e-02
3.846040e-02
4.188480e-02
4.526590e-02
4.126420e-02
5.819410e-02
7.273720e-02
8.489360e-02
9.466320e-02
4.321100e-02
5.746670e-02
7.009830e-02
8.110590e-02
9.048940e-02
4.452690e-02
5.602010e-02
6.634830e-02
7.551150e-02
8.350970e-02
4.521180e-02
5.385430e-02
6.148700e-02
6.811020e-02
7.372380e-02
4.526590e-02
5.096920e-02
5.551460e-02
5.890220e-02
6.113200e-02
9.466320e-02
8.470490e-02
7.384900e-02
6.209560e-02
4.944470e-02
9.048940e-02
8.064400e-02
7.036640e-02
5.965650e-02
4.851450e-02
8.350970e-02
7.484160e-02
6.613870e-02
5.740090e-02
4.862830e-02
7.372380e-02
6.729770e-02
6.116600e-02
5.532880e-02
4.978610e-02
6.113200e-02
5.801230e-02
5.544830e-02
5.344020e-02
5.198790e-02
4.944470e-02
4.045260e-02
3.267040e-02
2.609810e-02
2.073570e-02
4.851450e-02
4.117870e-02
3.458530e-02
2.873420e-02
2.362550e-02
4.862830e-02
4.229010e-02
3.641200e-02
3.099410e-02
2.603640e-02
4.978610e-02
4.378660e-02
3.815060e-02
3.287790e-02
2.796860e-02
5.198790e-02
4.566840e-02
3.980090e-02
3.438540e-02
2.942190e-02
2.073570e-02
2.201450e-02
2.283630e-02
2.320110e-02
2.310890e-02
2.362550e-02
2.427830e-02
2.462310e-02
2.465980e-02
2.438840e-02
2.603640e-02
2.622060e-02
2.619390e-02
2.595640e-02
2.550800e-02
2.796860e-02
2.784130e-02
2.754880e-02
2.709100e-02
2.646780e-02
2.942190e-02
2.914060e-02
2.868780e-02
2.806350e-02
2.726780e-02
2.310890e-02
2.225200e-02
2.168620e-02
2.141140e-02
2.142770e-02
2.438840e-02
2.335740e-02
2.263840e-02
2.223160e-02
2.213680e-02
2.550800e-02
2.434790e-02
2.351550e-02
2.301090e-02
2.283400e-02
2.646780e-02
2.522370e-02
2.431760e-02
2.374940e-02
2.351920e-02
2.726780e-02
2.598480e-02
2.504460e-02
2.444710e-02
2.419250e-02
2.142770e-02
2.245190e-02
2.313370e-02
2.347320e-02
2.347030e-02
2.213680e-02
2.300280e-02
2.356090e-02
2.381100e-02
2.375320e-02
2.283400e-02
2.354030e-02
2.397530e-02
2.413890e-02
2.403110e-02
2.351920e-02
2.406440e-02
2.437690e-02
2.445690e-02
2.430420e-02
2.419250e-02
2.457500e-02
2.476580e-02
2.476490e-02
2.457240e-02
2.463000e-02
2.447050e-02
2.447960e-02
2.465730e-02
2.500370e-02
2.499690e-02
2.489490e-02
2.494690e-02
2.515290e-02
2.551300e-02
2.534870e-02
2.530110e-02
2.539270e-02
2.562360e-02
2.599370e-02
2.568540e-02
2.568910e-02
2.581710e-02
2.606930e-02
2.644580e-02
2.600690e-02
2.605890e-02
2.622000e-02
2.649010e-02
2.686930e-02
2.500370e-02
2.474110e-02
2.489760e-02
2.547320e-02
2.646800e-02
2.551300e-02
2.543690e-02
2.567970e-02
2.624140e-02
2.712190e-02
2.599370e-02
2.607300e-02
2.639020e-02
2.694530e-02
2.773820e-02
2.644580e-02
2.664940e-02
2.702920e-02
2.758500e-02
2.831700e-02
2.686930e-02
2.716610e-02
2.759650e-02
2.816050e-02
2.885820e-02
2.646800e-02
2.717650e-02
2.824820e-02
2.968310e-02
3.148120e-02
2.712190e-02
2.816690e-02
2.935640e-02
3.069020e-02
3.216840e-02
2.773820e-02
2.896910e-02
3.021460e-02
3.147480e-02
3.274970e-02
2.831700e-02
2.958290e-02
3.082290e-02
3.203700e-02
3.322510e-02
2.885820e-02
3.000840e-02
3.118130e-02
3.237680e-02
3.359480e-02
3.148120e-02
3.499250e-02
3.846040e-02
4.188480e-02
4.526590e-02
3.216840e-02
3.547090e-02
3.861840e-02
4.161090e-02
4.444840e-02
3.274970e-02
3.579470e-02
3.862350e-02
4.123620e-02
4.363270e-02
3.322510e-02
3.596380e-02
3.847560e-02
4.076050e-02
4.281870e-02
3.359480e-02
3.597820e-02
3.817460e-02
4.018400e-02
4.200650e-02
4.526590e-02
5.096920e-02
5.551460e-02
5.890220e-02
6.113200e-02
4.444840e-02
4.887840e-02
5.253740e-02
5.542530e-02
5.754210e-02
4.363270e-02
4.705590e-02
4.997190e-02
5.238060e-02
5.428200e-02
4.281870e-02
4.550170e-02
4.781830e-02
4.976830e-02
5.135170e-02
4.200650e-02
4.421580e-02
4.607640e-02
4.758820e-02
4.875130e-02
6.113200e-02
5.801230e-02
5.544830e-02
5.344020e-02
5.198790e-02
5.754210e-02
5.547300e-02
5.332740e-02
5.110520e-02
4.880650e-02
5.428200e-02
5.284760e-02
5.103800e-02
4.885330e-02
4.629340e-02
5.135170e-02
5.013610e-02
4.858030e-02
4.668450e-02
4.444870e-02
4.875130e-02
4.733840e-02
4.595420e-02
4.459880e-02
4.327220e-02
5.198790e-02
4.566840e-02
3.980090e-02
3.438540e-02
2.942190e-02
4.880650e-02
4.356420e-02
3.884790e-02
3.465780e-02
3.099380e-02
4.629340e-02
4.209340e-02
3.836110e-02
3.509660e-02
3.229990e-02
4.444870e-02
4.125610e-02
3.834050e-02
3.570200e-02
3.334040e-02
4.327220e-02
4.105230e-02
3.878620e-02
3.647380e-02
3.411530e-02
2.942190e-02
2.914060e-02
2.868780e-02
2.806350e-02
2.726780e-02
3.099380e-02
3.033090e-02
2.957470e-02
2.872520e-02
2.778230e-02
3.229990e-02
3.128290e-02
3.026470e-02
2.924530e-02
2.822460e-02
3.334040e-02
3.199680e-02
3.075790e-02
2.962380e-02
2.859450e-02
3.411530e-02
3.247230e-02
3.105410e-02
2.986070e-02
2.889200e-02
2.726780e-02
2.598480e-02
2.504460e-02
2.444710e-02
2.419250e-02
2.778230e-02
2.666680e-02
2.581610e-02
2.523010e-02
2.490890e-02
2.822460e-02
2.726730e-02
2.650350e-02
2.593330e-02
2.555660e-02
2.859450e-02
2.778610e-02
2.710690e-02
2.655670e-02
2.613550e-02
2.889200e-02
2.822340e-02
2.762620e-02
2.710030e-02
2.664560e-02
2.419250e-02
2.457500e-02
2.476580e-02
2.476490e-02
2.457240e-02
2.490890e-02
2.505900e-02
2.510470e-02
2.504590e-02
2.488260e-02
2.555660e-02
2.550120e-02
2.542020e-02
2.531360e-02
2.518140e-02
2.613550e-02
2.590150e-02
2.571240e-02
2.556820e-02
2.546890e-02
2.664560e-02
2.626000e-02
2.598130e-02
2.580970e-02
2.574490e-02
2.600690e-02
2.605890e-02
2.622000e-02
2.649010e-02
2.686930e-02
2.630990e-02
2.639780e-02
2.658360e-02
2.686750e-02
2.724930e-02
2.659390e-02
2.671400e-02
2.692100e-02
2.721490e-02
2.759570e-02
2.685910e-02
2.700760e-02
2.723210e-02
2.753240e-02
2.790850e-02
2.710540e-02
2.727870e-02
2.751680e-02
2.781990e-02
2.818780e-02
2.686930e-02
2.716610e-02
2.759650e-02
2.816050e-02
2.885820e-02
2.724930e-02
2.759810e-02
2.805720e-02
2.862670e-02
2.930640e-02
2.759570e-02
2.798240e-02
2.845930e-02
2.902630e-02
2.968340e-02
2.790850e-02
2.831910e-02
2.880270e-02
2.935930e-02
2.998890e-02
2.818780e-02
2.860810e-02
2.908750e-02
2.962580e-02
3.022310e-02
2.885820e-02
3.000840e-02
3.118130e-02
3.237680e-02
3.359480e-02
2.930640e-02
3.040490e-02
3.151360e-02
3.263260e-02
3.376180e-02
2.968340e-02
3.073380e-02
3.178010e-02
3.282240e-02
3.386050e-02
2.998890e-02
3.099510e-02
3.198080e-02
3.294610e-02
3.389100e-02
3.022310e-02
3.118870e-02
3.211560e-02
3.300380e-02
3.385330e-02
3.359480e-02
3.597820e-02
3.817460e-02
4.018400e-02
4.200650e-02
3.376180e-02
3.590120e-02
3.785270e-02
3.961640e-02
4.119210e-02
3.386050e-02
3.575420e-02
3.746890e-02
3.900450e-02
4.036110e-02
3.389100e-02
3.553720e-02
3.702310e-02
3.834850e-02
3.951350e-02
3.385330e-02
3.525020e-02
3.651520e-02
3.764830e-02
3.864930e-02
4.200650e-02
4.421580e-02
4.607640e-02
4.758820e-02
4.875130e-02
4.119210e-02
4.305840e-02
4.458970e-02
4.578610e-02
4.664750e-02
4.036110e-02
4.191030e-02
4.315700e-02
4.410130e-02
4.474330e-02
3.951350e-02
4.077140e-02
4.177830e-02
4.253400e-02
4.303870e-02
3.864930e-02
3.964190e-02
4.045350e-02
4.108410e-02
4.153380e-02
4.875130e-02
4.733840e-02
4.595420e-02
4.459880e-02
4.327220e-02
4.664750e-02
4.539570e-02
4.415150e-02
4.291490e-02
4.168590e-02
4.474330e-02
4.370580e-02
4.264760e-02
4.156870e-02
4.046920e-02
4.303870e-02
4.226860e-02
4.144250e-02
4.056030e-02
3.962200e-02
4.153380e-02
4.108420e-02
4.053610e-02
3.988950e-02
3.914440e-02
4.327220e-02
4.105230e-02
3.878620e-02
3.647380e-02
3.411530e-02
4.168590e-02
3.979830e-02
3.791560e-02
3.603780e-02
3.416490e-02
4.046920e-02
3.884200e-02
3.725050e-02
3.569480e-02
3.417480e-02
3.962200e-02
3.818330e-02
3.679090e-02
3.544480e-02
3.414500e-02
3.914440e-02
3.782210e-02
3.653660e-02
3.528770e-02
3.407550e-02
3.411530e-02
3.247230e-02
3.105410e-02
2.986070e-02
2.889200e-02
3.416490e-02
3.270980e-02
3.141540e-02
3.028180e-02
2.930900e-02
3.417480e-02
3.287600e-02
3.169150e-02
3.062160e-02
2.966600e-02
3.414500e-02
3.297090e-02
3.188250e-02
3.088000e-02
2.996320e-02
3.407550e-02
3.299450e-02
3.198830e-02
3.105700e-02
3.020050e-02
2.889200e-02
2.822340e-02
2.762620e-02
2.710030e-02
2.664560e-02
2.930900e-02
2.863510e-02
2.802970e-02
2.749270e-02
2.702420e-02
2.966600e-02
2.898730e-02
2.837540e-02
2.783040e-02
2.735210e-02
2.996320e-02
2.928000e-02
2.866330e-02
2.811310e-02
2.762930e-02
3.020050e-02
2.951330e-02
2.889340e-02
2.834090e-02
2.785580e-02
2.664560e-02
2.626000e-02
2.598130e-02
2.580970e-02
2.574490e-02
2.702420e-02
2.662350e-02
2.631590e-02
2.610160e-02
2.598050e-02
2.735210e-02
2.694830e-02
2.662150e-02
2.637190e-02
2.619920e-02
2.762930e-02
2.723450e-02
2.689820e-02
2.662040e-02
2.640110e-02
2.785580e-02
2.748210e-02
2.714590e-02
2.684720e-02
2.658610e-02
2.710540e-02
2.727870e-02
2.751680e-02
2.781990e-02
2.818780e-02
2.733260e-02
2.752030e-02
2.776590e-02
2.806930e-02
2.843060e-02
2.754220e-02
2.774140e-02
2.799180e-02
2.829340e-02
2.864620e-02
2.773410e-02
2.794180e-02
2.819450e-02