<?xml version="1.0"?>
<VTKFile type="UnstructuredGrid" version="0.1" byte_order="LittleEndian" compressor="vtkZLibDataCompressor">
<UnstructuredGrid>
<Piece NumberOfPoints="2500" NumberOfCells="1600">
<Points>
<DataArray type="Float32" NumberOfComponents="3" format="ascii">
-3.630000e+00 0.000000e+00 0.000000e+00
-3.448500e+00 0.000000e+00 0.000000e+00
-3.267000e+00 0.000000e+00 0.000000e+00
-3.085500e+00 0.000000e+00 0.000000e+00
-2.904000e+00 0.000000e+00 0.000000e+00
-3.630000e+00 1.282500e-01 0.000000e+00
-3.448500e+00 1.282500e-01 0.000000e+00
-3.267000e+00 1.282500e-01 0.000000e+00
-3.085500e+00 1.282500e-01 0.000000e+00
-2.904000e+00 1.282500e-01 0.000000e+00
-3.630000e+00 2.565000e-01 0.000000e+00
-3.448500e+00 2.565000e-01 0.000000e+00
-3.267000e+00 2.565000e-01 0.000000e+00
-3.085500e+00 2.565000e-01 0.000000e+00
-2.904000e+00 2.565000e-01 0.000000e+00
-3.630000e+00 3.847500e-01 0.000000e+00
-3.448500e+00 3.847500e-01 0.000000e+00
-3.267000e+00 3.847500e-01 0.000000e+00
-3.085500e+00 3.847500e-01 0.000000e+00
-2.904000e+00 3.847500e-01 0.000000e+00
-3.630000e+00 5.130000e-01 0.000000e+00
-3.448500e+00 5.130000e-01 0.000000e+00
-3.267000e+00 5.130000e-01 0.000000e+00
-3.085500e+00 5.130000e-01 0.000000e+00
-2.904000e+00 5.130000e-01 0.000000e+00
-2.904000e+00 0.000000e+00 0.000000e+00
-2.722500e+00 0.000000e+00 0.000000e+00
-2.541000e+00 0.000000e+00 0.000000e+00
-2.359500e+00 0.000000e+00 0.000000e+00
-2.178000e+00 0.000000e+00 0.000000e+00
-2.904000e+00 1.282500e-01 0.000000e+00
-2.722500e+00 1.282500e-01 0.000000e+00
-2.541000e+00 1.282500e-01 0.000000e+00
-2.359500e+00 1.282500e-01 0.000000e+00
-2.178000e+00 1.282500e-01 0.000000e+00
-2.904000e+00 2.565000e-01 0.000000e+00
-2.722500e+00 2.565000e-01 0.000000e+00
-2.541000e+00 2.565000e-01 0.000000e+00
-2.359500e+00 2.565000e-01 0.000000e+00
-2.178000e+00 2.565000e-01 0.000000e+00
-2.904000e+00 3.847500e-01 0.000000e+00
-2.722500e+00 3.847500e-01 0.000000e+00
-2.541000e+00 3.847500e-01 0.000000e+00
-2.359500e+00 3.847500e-01 0.000000e+00
-2.178000e+00 3.847500e-01 0.000000e+00
-2.904000e+00 5.130000e-01 0.000000e+00
-2.722500e+00 5.130000e-01 0.000000e+00
-2.541000e+00 5.130000e-01 0.000000e+00
-2.359500e+00 5.130000e-01 0.000000e+00
-2.178000e+00 5.130000e-01 0.000000e+00
-2.178000e+00 0.000000e+00 0.000000e+00
-1.996500e+00 0.000000e+00 0.000000e+00
-1.815000e+00 0.000000e+00 0.000000e+00
-1.633500e+00 0.000000e+00 0.000000e+00
-1.452000e+00 0.000000e+00 0.000000e+00
-2.178000e+00 1.282500e-01 0.000000e+00
-1.996500e+00 1.282500e-01 0.000000e+00
-1.815000e+00 1.282500e-01 0.000000e+00
-1.633500e+00 1.282500e-01 0.000000e+00
-1.452000e+00 1.282500e-01 0.000000e+00
-2.178000e+00 2.565000e-01 0.000000e+00
-1.996500e+00 2.565000e-01 0.000000e+00
-1.815000e+00 2.565000e-01 0.000000e+00
-1.633500e+00 2.565000e-01 0.000000e+00
-1.452000e+00 2.565000e-01 0.000000e+00
-2.178000e+00 3.847500e-01 0.000000e+00
-1.996500e+00 3.847500e-01 0.000000e+00
-1.815000e+00 3.847500e-01 0.000000e+00
-1.633500e+00 3.847500e-01 0.000000e+00
-1.452000e+00 3.847500e-01 0.000000e+00
-2.178000e+00 5.130000e-01 0.000000e+00
-1.996500e+00 5.130000e-01 0.000000e+00
-1.815000e+00 5.130000e-01 0.000000e+00
-1.633500e+00 5.130000e-01 0.000000e+00
-1.452000e+00 5.130000e-01 0.000000e+00
-1.452000e+00 0.000000e+00 0.000000e+00
-1.270500e+00 0.000000e+00 0.000000e+00
-1.089000e+00 0.000000e+00 0.000000e+00
-9.075000e-01 0.000000e+00 0.000000e+00
-7.260000e-01 0.000000e+00 0.000000e+00
-1.452000e+00 1.282500e-01 0.000000e+00
-1.270500e+00 1.282500e-01 0.000000e+00
-1.089000e+00 1.282500e-01 0.000000e+00
-9.075000e-01 1.282500e-01 0.000000e+00
-7.260000e-01 1.282500e-01 0.000000e+00
-1.452000e+00 2.565000e-01 0.000000e+00
-1.270500e+00 2.565000e-01 0.000000e+00
-1.089000e+00 2.565000e-01 0.000000e+00
-9.075000e-01 2.565000e-01 0.000000e+00
-7.260000e-01 2.565000e-01 0.000000e+00
-1.452000e+00 3.847500e-01 0.000000e+00
-1.270500e+00 3.847500e-01 0.000000e+00
-1.089000e+00 3.847500e-01 0.000000e+00
-9.075000e-01 3.847500e-01 0.000000e+00
-7.260000e-01 3.847500e-01 0.000000e+00
-1.452000e+00 5.130000e-01 0.000000e+00
-1.270500e+00 5.130000e-01 0.000000e+00
-1.089000e+00 5.130000e-01 0.000000e+00
-9.075000e-01 5.130000e-01 0.000000e+00
-7.260000e-01 5.130000e-01 0.000000e+00
-7.260000e-01 0.000000e+00 0.000000e+00
-5.445000e-01 0.000000e+00 0.000000e+00
-3.630000e-01 0.000000e+00 0.000000e+00
-1.815000e-01 0.000000e+00 0.000000e+00
0.000000e+00 0.000000e+00 0.000000e+00
-7.260000e-01 1.282500e-01 0.000000e+00
-5.445000e-01 1.282500e-01 0.000000e+00
-3.630000e-01 1.282500e-01 0.000000e+00
-1.815000e-01 1.282500e-01 0.000000e+00
0.000000e+00 1.282500e-01 0.000000e+00
-7.260000e-01 2.565000e-01 0.000000e+00
-5.445000e-01 2.565000e-01 0.000000e+00
-3.630000e-01 2.565000e-01 0.000000e+00
-1.815000e-01 2.565000e-01 0.000000e+00
0.000000e+00 2.565000e-01 0.000000e+00
-7.260000e-01 3.847500e-01 0.000000e+00
-5.445000e-01 3.847500e-01 0.000000e+00
-3.630000e-01 3.847500e-01 0.000000e+00
-1.815000e-01 3.847500e-01 0.000000e+00
0.000000e+00 3.847500e-01 0.000000e+00
-7.260000e-01 5.130000e-01 0.000000e+00
-5.445000e-01 5.130000e-01 0.000000e+00
-3.630000e-01 5.130000e-01 0.000000e+00
-1.815000e-01 5.130000e-01 0.000000e+00
0.000000e+00 5.130000e-01 0.000000e+00
0.000000e+00 0.000000e+00 0.000000e+00
1.815000e-01 0.000000e+00 0.000000e+00
3.630000e-01 0.000000e+00 0.000000e+00
5.445000e-01 0.000000e+00 0.000000e+00
7.260000e-01 0.000000e+00 0.000000e+00
0.000000e+00 1.282500e-01 0.000000e+00
1.815000e-01 1.282500e-01 0.000000e+00
3.630000e-01 1.282500e-01 0.000000e+00
5.445000e-01 1.282500e-01 0.000000e+00
7.260000e-01 1.282500e-01 0.000000e+00
0.000000e+00 2.565000e-01 0.000000e+00
1.815000e-01 2.565000e-01 0.000000e+00
3.630000e-01 2.565000e-01 0.000000e+00
5.445000e-01 2.565000e-01 0.000000e+00
7.260000e-01 2.565000e-01 0.000000e+00
0.000000e+00 3.847500e-01 0.000000e+00
1.815000e-01 3.847500e-01 0.000000e+00
3.630000e-01 3.847500e-01 0.000000e+00
5.445000e-01 3.847500e-01 0.000000e+00
7.260000e-01 3.847500e-01 0.000000e+00
0.000000e+00 5.130000e-01 0.000000e+00
1.815000e-01 5.130000e-01 0.000000e+00
3.630000e-01 5.130000e-01 0.000000e+00
5.445000e-01 5.130000e-01 0.000000e+00
7.260000e-01 5.130000e-01 0.000000e+00
7.260000e-01 0.000000e+00 0.000000e+00
9.075000e-01 0.000000e+00 0.000000e+00
1.089000e+00 0.000000e+00 0.000000e+00
1.270500e+00 0.000000e+00 0.000000e+00
1.452000e+00 0.000000e+00 0.000000e+00
7.260000e-01 1.282500e-01 0.000000e+00
9.075000e-01 1.282500e-01 0.000000e+00
1.089000e+00 1.282500e-01 0.000000e+00
1.270500e+00 1.282500e-01 0.000000e+00
1.452000e+00 1.282500e-01 0.000000e+00
7.260000e-01 2.565000e-01 0.000000e+00
9.075000e-01 2.565000e-01 0.000000e+00
1.089000e+00 2.565000e-01 0.000000e+00
1.270500e+00 2.565000e-01 0.000000e+00
1.452000e+00 2.565000e-01 0.000000e+00
7.260000e-01 3.847500e-01 0.000000e+00
9.075000e-01 3.847500e-01 0.000000e+00
1.089000e+00 3.847500e-01 0.000000e+00
1.270500e+00 3.847500e-01 0.000000e+00
1.452000e+00 3.847500e-01 0.000000e+00
7.260000e-01 5.130000e-01 0.000000e+00
9.075000e-01 5.130000e-01 0.000000e+00
1.089000e+00 5.130000e-01 0.000000e+00
1.270500e+00 5.130000e-01 0.000000e+00
1.452000e+00 5.130000e-01 0.000000e+00
1.452000e+00 0.000000e+00 0.000000e+00
1.633500e+00 0.000000e+00 0.000000e+00
1.815000e+00 0.000000e+00 0.000000e+00
1.996500e+00 0.000000e+00 0.000000e+00
2.178000e+00 0.000000e+00 0.000000e+00
1.452000e+00 1.282500e-01 0.000000e+00
1.633500e+00 1.282500e-01 0.000000e+00
1.815000e+00 1.282500e-01 0.000000e+00
1.996500e+00 1.282500e-01 0.000000e+00
2.178000e+00 1.282500e-01 0.000000e+00
1.452000e+00 2.565000e-01 0.000000e+00
1.633500e+00 2.565000e-01 0.000000e+00
1.815000e+00 2.565000e-01 0.000000e+00
1.996500e+00 2.565000e-01 0.000000e+00
2.178000e+00 2.565000e-01 0.000000e+00
1.452000e+00 3.847500e-01 0.000000e+00
1.633500e+00 3.847500e-01 0.000000e+00
1.815000e+00 3.847500e-01 0.000000e+00
1.996500e+00 3.847500e-01 0.000000e+00
2.178000e+00 3.847500e-01 0.000000e+00
1.452000e+00 5.130000e-01 0.000000e+00
1.633500e+00 5.130000e-01 0.000000e+00
1.815000e+00 5.130000e-01 0.000000e+00
1.996500e+00 5.130000e-01 0.000000e+00
2.178000e+00 5.130000e-01 0.000000e+00
2.178000e+00 0.000000e+00 0.000000e+00
2.359500e+00 0.000000e+00 0.000000e+00
2.541000e+00 0.000000e+00 0.000000e+00
2.722500e+00 0.000000e+00 0.000000e+00
2.904000e+00 0.000000e+00 0.000000e+00
2.178000e+00 1.282500e-01 0.000000e+00
2.359500e+00 1.282500e-01 0.000000e+00
2.541000e+00 1.282500e-01 0.000000e+00
2.722500e+00 1.282500e-01 0.000000e+00
2.904000e+00 1.282500e-01 0.000000e+00
2.178000e+00 2.565000e-01 0.000000e+00
2.359500e+00 2.565000e-01 0.000000e+00
2.541000e+00 2.565000e-01 0.000000e+00
2.722500e+00 2.565000e-01 0.000000e+00
2.904000e+00 2.565000e-01 0.000000e+00
2.178000e+00 3.847500e-01 0.000000e+00
2.359500e+00 3.847500e-01 0.000000e+00
2.541000e+00 3.847500e-01 0.000000e+00
2.722500e+00 3.847500e-01 0.000000e+00
2.904000e+00 3.847500e-01 0.000000e+00
2.178000e+00 5.130000e-01 0.000000e+00
2.359500e+00 5.130000e-01 0.000000e+00
2.541000e+00 5.130000e-01 0.000000e+00
2.722500e+00 5.130000e-01 0.000000e+00
2.904000e+00 5.130000e-01 0.000000e+00
2.904000e+00 0.000000e+00 0.000000e+00
3.085500e+00 0.000000e+00 0.000000e+00
3.267000e+00 0.000000e+00 0.000000e+00
3.448500e+00 0.000000e+00 0.000000e+00
3.630000e+00 0.000000e+00 0.000000e+00
2.904000e+00 1.282500e-01 0.000000e+00
3.085500e+00 1.282500e-01 0.000000e+00
3.267000e+00 1.282500e-01 0.000000e+00
3.448500e+00 1.282500e-01 0.000000e+00
3.630000e+00 1.282500e-01 0.000000e+00
2.904000e+00 2.565000e-01 0.000000e+00
3.085500e+00 2.565000e-01 0.000000e+00
3.267000e+00 2.565000e-01 0.000000e+00
3.448500e+00 2.565000e-01 0.000000e+00
3.630000e+00 2.565000e-01 0.000000e+00
2.904000e+00 3.847500e-01 0.000000e+00
3.085500e+00 3.847500e-01 0.000000e+00
3.267000e+00 3.847500e-01 0.000000e+00
3.448500e+00 3.847500e-01 0.000000e+00
3.630000e+00 3.847500e-01 0.000000e+00
2.904000e+00 5.130000e-01 0.000000e+00
[...]
<PointData>
<DataArray type="Float32" Name="V1" format="ascii">
0.000000e+00
0.000000e+00
0.000000e+00
0.000000e+00
0.000000e+00
1.264110e-02
1.103380e-02
9.647090e-03
8.481070e-03
7.535710e-03
2.028400e-02
1.822680e-02
1.638830e-02
1.476870e-02
1.336800e-02
2.292870e-02
2.157890e-02
2.022370e-02
1.886300e-02
1.749690e-02
2.057510e-02
2.109030e-02
2.115320e-02
2.076390e-02
1.992230e-02
0.000000e+00
0.000000e+00
0.000000e+00
0.000000e+00
0.000000e+00
7.535710e-03
6.469740e-03
5.640850e-03
5.049030e-03
4.694280e-03
1.336800e-02
1.178090e-02
1.051060e-02
9.556950e-03
8.920060e-03
1.749690e-02
1.593350e-02
1.460910e-02
1.352380e-02
1.267730e-02
1.992230e-02
1.892760e-02
1.793660e-02
1.694940e-02
1.596610e-02
0.000000e+00
0.000000e+00
0.000000e+00
0.000000e+00
0.000000e+00
4.694280e-03
4.418040e-03
4.216080e-03
4.088390e-03
4.034970e-03
8.920060e-03
8.402770e-03
8.011510e-03
7.746270e-03
7.607040e-03
1.267730e-02
1.195420e-02
1.138630e-02
1.097360e-02
1.071620e-02
1.596610e-02
1.507230e-02
1.434040e-02
1.377050e-02
1.336250e-02
0.000000e+00
0.000000e+00
0.000000e+00
0.000000e+00
0.000000e+00
4.034970e-03
3.840060e-03
3.991770e-03
4.490100e-03
5.335070e-03
7.607040e-03
7.148060e-03
7.285620e-03
8.019730e-03
9.350370e-03
1.071620e-02
9.924020e-03
9.881580e-03
1.058890e-02
1.204590e-02
1.336250e-02
1.216790e-02
1.177960e-02
1.219750e-02
1.342170e-02
0.000000e+00
0.000000e+00
0.000000e+00
0.000000e+00
0.000000e+00
5.335070e-03
5.093290e-03
4.128160e-03
2.439670e-03
2.783440e-05
9.350370e-03
8.596810e-03
6.611110e-03
3.393280e-03
-1.056700e-03
1.204590e-02
1.051060e-02
7.448870e-03
2.860810e-03
-3.253610e-03
1.342170e-02
1.083450e-02
6.641410e-03
8.422680e-04
-6.562880e-03
0.000000e+00
0.000000e+00
0.000000e+00
0.000000e+00
0.000000e+00
2.783440e-05
-1.635950e-03
-4.194520e-03
-7.647870e-03
-1.199600e-02
-1.056700e-03
-4.055450e-03
-8.337910e-03
-1.390410e-02
-2.075400e-02
-3.253610e-03
-7.258480e-03
-1.243020e-02
-1.876870e-02
-2.627400e-02
-6.562880e-03
-1.124510e-02
-1.647130e-02
-2.224160e-02
-2.855600e-02
0.000000e+00
0.000000e+00
0.000000e+00
0.000000e+00
0.000000e+00
-1.199600e-02
-1.258070e-02
-1.225720e-02
-1.102540e-02
-8.885310e-03
-2.075400e-02
-2.115670e-02
-2.022170e-02
-1.794870e-02
-1.433800e-02
-2.627400e-02
-2.572800e-02
-2.389340e-02
-2.077010e-02
-1.635810e-02
-2.855600e-02
-2.629460e-02
-2.327240e-02
-1.948940e-02
-1.494560e-02
0.000000e+00
0.000000e+00
0.000000e+00
0.000000e+00
0.000000e+00
-8.885310e-03
-8.046200e-03
-6.605470e-03
-4.563150e-03
-1.919210e-03
-1.433800e-02
-1.284910e-02
-1.041730e-02
-7.042490e-03
-2.724810e-03
-1.635810e-02
-1.440870e-02
-1.143530e-02
-7.438040e-03
-2.416800e-03
-1.494560e-02
-1.272500e-02
-9.659730e-03
-5.749790e-03
-9.951760e-04
0.000000e+00
0.000000e+00
0.000000e+00
0.000000e+00
0.000000e+00
-1.919210e-03
2.239180e-04
2.016100e-03
3.457330e-03
4.547620e-03
-2.724810e-03
8.698300e-04
3.873420e-03
6.285950e-03
8.107420e-03
-2.416800e-03
1.937740e-03
5.571950e-03
8.485840e-03
1.067940e-02
-9.951760e-04
3.427640e-03
7.111700e-03
1.005700e-02
1.226360e-02
0.000000e+00
0.000000e+00
0.000000e+00
0.000000e+00
0.000000e+00
4.547620e-03
5.659180e-03
6.648900e-03
7.516760e-03
8.262770e-03
8.107420e-03
9.984400e-03
1.164390e-02
1.308580e-02
1.431020e-02
1.067940e-02
1.297560e-02
1.498490e-02
1.670710e-02
1.814230e-02
1.226360e-02
1.463290e-02
1.667190e-02
1.838070e-02
1.975910e-02
2.057510e-02
2.109030e-02
2.115320e-02
2.076390e-02
1.992230e-02
2.078850e-02
2.098030e-02
2.100250e-02
2.085500e-02
2.053780e-02
2.103660e-02
2.097120e-02
2.092310e-02
2.089240e-02
2.087900e-02
2.131930e-02
2.106280e-02
2.091510e-02
2.087620e-02
2.094600e-02
2.163650e-02
2.125520e-02
2.097850e-02
2.080630e-02
2.073870e-02
1.992230e-02
1.892760e-02
1.793660e-02
1.694940e-02
1.596610e-02
2.053780e-02
2.004610e-02
1.947860e-02
1.883530e-02
1.811610e-02
2.087900e-02
2.074870e-02
2.050270e-02
2.014090e-02
1.966350e-02
2.094600e-02
2.103530e-02
2.100880e-02
2.086650e-02
2.060840e-02
2.073870e-02
2.090580e-02
2.099690e-02
2.101180e-02
2.095070e-02
1.596610e-02
1.507230e-02
1.434040e-02
1.377050e-02
1.336250e-02
1.811610e-02
1.728270e-02
1.656680e-02
1.596860e-02
1.548790e-02
1.966350e-02
1.891490e-02
1.825570e-02
1.768600e-02
1.720570e-02
2.060840e-02
1.996900e-02
1.940710e-02
1.892270e-02
1.851570e-02
2.095070e-02
2.044510e-02
2.002110e-02
1.967870e-02
1.941810e-02
1.336250e-02
1.216790e-02
1.177960e-02
1.219750e-02
1.342170e-02
1.548790e-02
1.377430e-02
1.306640e-02
1.336420e-02
1.466770e-02
1.720570e-02
1.506720e-02
1.412150e-02
1.436830e-02
1.580790e-02
1.851570e-02
1.604670e-02
1.494470e-02
1.520990e-02
1.684220e-02
1.941810e-02
1.671260e-02
1.553620e-02
1.588890e-02
1.777050e-02
1.342170e-02
1.083450e-02
6.641410e-03
8.422680e-04
-6.562880e-03
1.466770e-02
1.099820e-02
6.012990e-03
-2.880110e-04
-7.904760e-03
1.580790e-02
1.141220e-02
5.977920e-03
-4.949710e-04
-8.006470e-03
1.684220e-02
1.207650e-02
6.536220e-03
2.213890e-04
-6.868010e-03
1.777050e-02
1.299100e-02
7.687870e-03
1.861070e-03
-4.489390e-03
-6.562880e-03
-1.124510e-02
-1.647130e-02
-2.224160e-02
-2.855600e-02
-7.904760e-03
-1.136650e-02
-1.587320e-02
-2.142480e-02
-2.802140e-02
-8.006470e-03
-9.836840e-03
-1.334850e-02
-1.854140e-02
-2.541560e-02
-6.868010e-03
-6.656010e-03
-8.897090e-03
-1.359130e-02
-2.073850e-02
-4.489390e-03
-1.824030e-03
-2.519070e-03
-6.574490e-03
-1.399030e-02
-2.855600e-02
-2.629460e-02
-2.327240e-02
-1.948940e-02
-1.494560e-02
-2.802140e-02
-2.583620e-02
-2.275500e-02
-1.877790e-02
-1.390480e-02
-2.541560e-02
-2.365930e-02
-2.073740e-02
-1.665000e-02
-1.139700e-02
-2.073850e-02
-1.976390e-02
-1.721970e-02
-1.310580e-02
-7.422290e-03
-1.399030e-02
-1.415010e-02
-1.220170e-02
-8.145220e-03
-1.980560e-03
-1.494560e-02
-1.272500e-02
-9.659730e-03
-5.749790e-03
-9.951760e-04
-1.390480e-02
-1.229230e-02
-9.514240e-03
-5.570620e-03
-4.614530e-04
-1.139700e-02
-1.043620e-02
-8.118640e-03
-4.444310e-03
5.867950e-04
-7.422290e-03
-7.156760e-03
-5.472950e-03
-2.370840e-03
2.149570e-03
-1.980560e-03
-2.453930e-03
-1.577150e-03
6.497800e-04
4.226860e-03
-9.951760e-04
3.427640e-03
7.111700e-03
1.005700e-02
1.226360e-02
-4.614530e-04
4.428390e-03
8.372260e-03
1.137010e-02
1.342200e-02
5.867950e-04
5.739100e-03
9.782610e-03
1.271730e-02
1.454320e-02
2.149570e-03
7.359760e-03
1.134270e-02
1.409850e-02
1.562710e-02
4.226860e-03
9.290370e-03
1.305270e-02
1.551370e-02
1.667360e-02
1.226360e-02
1.463290e-02
1.667190e-02
1.838070e-02
1.975910e-02
1.342200e-02
1.559190e-02
1.752950e-02
1.923490e-02
2.070790e-02
1.454320e-02
1.646300e-02
1.824360e-02
1.988500e-02
2.138730e-02
1.562710e-02
1.724600e-02
1.881400e-02
2.033100e-02
2.179710e-02
1.667360e-02
1.794100e-02
1.924080e-02
2.057290e-02
2.193750e-02
2.163650e-02
2.125520e-02
2.097850e-02
2.080630e-02
2.073870e-02
2.197900e-02
2.160130e-02
2.131220e-02
2.111180e-02
2.100000e-02
2.233590e-02
2.198530e-02
2.170510e-02
2.149520e-02
2.135570e-02
2.270730e-02
2.240730e-02
2.215710e-02
2.195660e-02
2.180590e-02
2.309330e-02
2.286730e-02
2.266820e-02
2.249590e-02
2.235050e-02
2.073870e-02
2.090580e-02
2.099690e-02
2.101180e-02
2.095070e-02
2.100000e-02
2.107250e-02
2.112610e-02
2.116090e-02
2.117690e-02
2.135570e-02
2.134270e-02
2.135370e-02
2.138870e-02
2.144760e-02
2.180590e-02
2.171650e-02
2.167960e-02
2.169500e-02
2.176290e-02
2.235050e-02
2.219400e-02
2.210380e-02
2.208010e-02
2.212280e-02
2.095070e-02
2.044510e-02
2.002110e-02
1.967870e-02
1.941810e-02
2.117690e-02
2.070420e-02
2.036340e-02
2.015470e-02
2.007800e-02
2.144760e-02
2.098780e-02
2.070570e-02
2.060130e-02
2.067470e-02
2.176290e-02
2.129590e-02
2.104770e-02
2.101840e-02
2.120810e-02
2.212280e-02
2.162840e-02
2.138960e-02
2.140620e-02
2.167830e-02
1.941810e-02
1.671260e-02
1.553620e-02
1.588890e-02
1.777050e-02
2.007800e-02
1.736420e-02
1.621810e-02
1.663990e-02
1.862940e-02
2.067470e-02
1.806180e-02
1.699120e-02
1.746290e-02
1.947680e-02
2.120810e-02
1.880560e-02
1.785560e-02
1.835790e-02
2.031270e-02
2.167830e-02
1.959560e-02
1.881110e-02
1.932500e-02
2.113710e-02
1.777050e-02
1.299100e-02
7.687870e-03
1.861070e-03
-4.489390e-03
1.862940e-02
1.450160e-02
9.836450e-03
4.634030e-03
-1.105680e-03
1.947680e-02
1.626830e-02
1.238930e-02
7.839790e-03
2.619770e-03
2.031270e-02
1.829120e-02
1.534640e-02
1.147830e-02
6.686960e-03
2.113710e-02
2.057030e-02
1.870780e-02
1.554970e-02
1.109590e-02
-4.489390e-03
-1.824030e-03
-2.519070e-03
-6.574490e-03
-1.399030e-02
-1.105680e-03
3.630860e-03
4.526990e-03
1.582720e-03
-5.201950e-03
2.619770e-03
8.827670e-03
1.108900e-02
9.403710e-03
3.771850e-03
6.686960e-03
1.376640e-02
1.716690e-02
1.688850e-02
1.293110e-02
1.109590e-02
1.844710e-02
2.276080e-02
2.403700e-02
2.227580e-02
-1.399030e-02
-1.415010e-02
-1.220170e-02
-8.145220e-03
-1.980560e-03
-5.201950e-03
-6.793330e-03
-5.784970e-03
-2.176880e-03
4.030930e-03
3.771850e-03
1.342130e-03
1.669070e-03
4.752690e-03
1.059300e-02
1.293110e-02
1.025630e-02
1.016040e-02
1.264350e-02
1.770560e-02
2.227580e-02
1.994910e-02
1.968900e-02
2.149560e-02
2.536880e-02
-1.980560e-03
-2.453930e-03
-1.577150e-03
6.497800e-04
4.226860e-03
4.030930e-03
2.994890e-03
3.123190e-03
4.415840e-03
6.872820e-03
1.059300e-02
8.952320e-03
8.308860e-03
8.662620e-03
1.001360e-02
1.770560e-02
1.541830e-02
1.397990e-02
1.339010e-02
1.364920e-02
2.536880e-02
2.239300e-02
2.013620e-02
1.859840e-02
1.777950e-02
4.226860e-03
9.290370e-03
1.305270e-02
1.551370e-02
1.667360e-02
6.872820e-03
1.154340e-02
1.491610e-02
1.699070e-02
1.776740e-02
1.001360e-02
1.408200e-02
1.690900e-02
1.849450e-02
1.883850e-02
1.364920e-02
1.690600e-02
1.903130e-02
2.002490e-02
1.988680e-02
1.777950e-02
2.001550e-02
2.128300e-02
2.158200e-02
2.091240e-02
1.667360e-02
1.794100e-02
1.924080e-02
2.057290e-02
2.193750e-02
1.776740e-02
1.892000e-02
2.004530e-02
2.114350e-02
2.221450e-02
1.883850e-02
1.989360e-02
2.085960e-02
2.173650e-02
2.252430e-02
1.988680e-02
2.086190e-02
2.168370e-02
2.235200e-02
2.286700e-02
2.091240e-02
2.182500e-02
2.251750e-02
2.299010e-02
2.324260e-02
2.309330e-02
2.286730e-02
2.266820e-02
2.249590e-02
2.235050e-02
2.348320e-02
2.330320e-02
2.314290e-02
2.300240e-02
2.288170e-02
2.386930e-02
2.373130e-02
2.360640e-02
2.349440e-02
2.339550e-02
2.425160e-02
2.415170e-02
2.405850e-02
2.397190e-02
2.389190e-02
2.463000e-02
2.456440e-02
2.449930e-02
2.443470e-02
2.437080e-02
2.235050e-02
2.219400e-02
2.210380e-02
2.208010e-02
2.212280e-02
2.288170e-02
2.271820e-02
2.261150e-02
2.256190e-02
2.256910e-02
2.339550e-02
2.323540e-02
2.312240e-02
2.305650e-02
2.303780e-02
2.389190e-02
2.374560e-02
2.363630e-02
2.356400e-02
2.352880e-02
2.437080e-02
2.424880e-02
2.415340e-02
2.408450e-02
2.404210e-02
2.212280e-02
2.162840e-02
2.138960e-02
2.140620e-02
2.167830e-02
2.256910e-02
2.211940e-02
2.189140e-02
2.188530e-02
2.210100e-02
2.303780e-02
2.264460e-02
2.243770e-02
2.241710e-02
2.258270e-02
2.352880e-02
2.320420e-02
2.302850e-02
2.300150e-02
2.312340e-02
2.404210e-02
2.379810e-02
2.366360e-02
2.363860e-02
2.372300e-02
2.167830e-02
1.959560e-02
1.881110e-02
1.932500e-02
2.113710e-02
2.210100e-02
2.056470e-02
1.997850e-02
2.034240e-02
2.165650e-02
2.258270e-02
2.153350e-02
2.114200e-02
2.140830e-02
2.233240e-02
2.312340e-02
2.250190e-02
2.230160e-02
2.252260e-02
2.316490e-02
2.372300e-02
2.347000e-02
2.345740e-02
2.368530e-02
2.415380e-02
2.113710e-02
2.057030e-02
1.870780e-02
1.554970e-02
1.109590e-02
2.165650e-02
2.265630e-02
2.217900e-02
2.022460e-02
1.679310e-02
2.233240e-02
2.432610e-02
2.495390e-02
2.421590e-02
2.211200e-02
2.316490e-02
2.557980e-02
2.703270e-02
2.752360e-02
2.705250e-02
2.415380e-02
2.641730e-02
2.841520e-02
3.014760e-02
3.161450e-02
1.109590e-02
1.844710e-02
2.276080e-02
2.403700e-02
2.227580e-02
1.679310e-02
2.326320e-02
2.768840e-02
3.006860e-02
3.040390e-02
2.211200e-02
2.793950e-02
3.241870e-02
3.554970e-02
3.733240e-02
2.705250e-02
3.247590e-02
3.695190e-02
4.048030e-02
4.306130e-02
3.161450e-02
3.687250e-02
4.128780e-02
4.486050e-02
4.759050e-02
2.227580e-02
1.994910e-02
1.968900e-02
2.149560e-02
2.536880e-02
3.040390e-02
2.863630e-02
2.817990e-02
2.903480e-02
3.120080e-02
3.733240e-02
3.601020e-02
3.539460e-02
3.548550e-02
3.628300e-02
4.306130e-02
4.207080e-02
4.133290e-02
4.084780e-02
4.061530e-02
4.759050e-02
4.681800e-02
4.599500e-02
4.512160e-02
4.419790e-02
2.536880e-02
2.239300e-02
2.013620e-02
1.859840e-02
1.777950e-02
3.120080e-02
2.807170e-02
2.549650e-02
2.347530e-02
2.200810e-02
3.628300e-02
3.299310e-02
3.012680e-02
2.768410e-02
2.566500e-02
4.061530e-02
3.715730e-02
3.402720e-02
3.122480e-02
2.875030e-02
4.419790e-02
4.056430e-02
3.719750e-02
3.409740e-02
3.126410e-02
1.777950e-02
2.001550e-02
2.128300e-02
2.158200e-02
2.091240e-02
2.200810e-02
2.295920e-02
2.324300e-02
2.285970e-02
2.180930e-02
2.566500e-02
2.553940e-02
2.501170e-02
2.408190e-02
2.274990e-02
2.875030e-02
2.775630e-02
2.658900e-02
2.524830e-02
2.373430e-02
3.126410e-02
2.960990e-02
2.797490e-02
2.635910e-02
2.476250e-02
2.091240e-02
2.182500e-02
2.251750e-02
2.299010e-02
2.324260e-02
2.180930e-02
2.279110e-02
2.343280e-02
2.373430e-02
2.369570e-02
2.274990e-02
2.374110e-02
2.429780e-02
2.442030e-02
2.410830e-02
2.373430e-02
2.467490e-02
2.511270e-02
2.504790e-02
2.448040e-02
2.476250e-02
2.559250e-02
2.587740e-02
2.561730e-02
2.481200e-02
2.463000e-02
2.456440e-02
2.449930e-02
2.443470e-02
2.437080e-02
2.499690e-02
2.495970e-02
2.492170e-02
2.488290e-02
2.484330e-02
2.534870e-02
2.533880e-02
2.532730e-02
2.531420e-02
2.529940e-02
2.568540e-02
2.570180e-02
2.571620e-02
2.572870e-02
2.573910e-02
2.600690e-02
2.604860e-02
2.608840e-02
2.612630e-02
2.616240e-02
2.437080e-02
2.424880e-02
2.415340e-02
2.408450e-02
2.404210e-02
2.484330e-02
2.473160e-02
2.465080e-02
2.460110e-02
2.458250e-02
2.529940e-02
2.519960e-02
2.513480e-02
2.510480e-02
2.510990e-02
2.573910e-02
2.565300e-02
2.560510e-02
2.559560e-02
2.562440e-02
2.616240e-02
2.609170e-02
2.606200e-02
2.607340e-02
2.612600e-02
2.404210e-02
2.379810e-02
2.366360e-02
2.363860e-02
2.372300e-02
2.458250e-02
2.437520e-02
2.428180e-02
2.430210e-02
2.443630e-02
2.510990e-02
2.494040e-02
2.488540e-02
2.494460e-02
2.511830e-02
2.562440e-02
2.549380e-02
2.547440e-02
2.556610e-02
2.576910e-02
2.612600e-02
2.603530e-02
2.604880e-02
2.616660e-02
2.638860e-02
2.372300e-02
2.347000e-02
2.345740e-02
2.368530e-02
2.415380e-02
2.443630e-02
2.430290e-02
2.441520e-02
2.477320e-02
2.537690e-02
2.511830e-02
2.508840e-02
2.529790e-02
2.574690e-02
2.643520e-02
2.576910e-02
2.582650e-02
2.610550e-02
2.660630e-02
2.732880e-02
2.638860e-02
2.651710e-02
2.683810e-02
2.735150e-02
2.805750e-02
2.415380e-02
2.641730e-02
2.841520e-02
3.014760e-02
3.161450e-02
2.537690e-02
2.712520e-02
2.908060e-02
3.124320e-02
3.361290e-02
2.643520e-02
2.781440e-02
2.964910e-02
3.193930e-02
3.468490e-02
2.732880e-02
2.848490e-02
3.012060e-02
3.223590e-02
3.483070e-02
2.805750e-02
2.913660e-02
3.049510e-02
3.213300e-02
3.405020e-02
3.161450e-02
3.687250e-02
4.128780e-02
4.486050e-02
4.759050e-02
3.361290e-02
3.929210e-02
4.407790e-02
4.797040e-02
5.096950e-02
3.468490e-02
4.032090e-02
4.512180e-02
4.908740e-02
5.221790e-02
3.483070e-02
3.995910e-02
4.441940e-02
4.821160e-02
5.133590e-02
3.405020e-02
3.820650e-02
4.197070e-02
4.534300e-02
4.832330e-02
4.759050e-02
4.681800e-02
4.599500e-02
4.512160e-02
4.419790e-02
5.096950e-02
5.053280e-02
4.968320e-02
4.842060e-02
4.674510e-02
5.221790e-02
5.210800e-02
5.135090e-02
4.994650e-02
4.789490e-02
5.133590e-02
5.154360e-02
5.099800e-02
4.969920e-02
4.764720e-02
4.832330e-02
4.883950e-02
4.862470e-02
4.767890e-02
4.600210e-02
4.419790e-02
4.056430e-02
3.719750e-02
3.409740e-02
3.126410e-02
4.674510e-02
4.268140e-02
3.899850e-02
3.569640e-02
3.277500e-02
4.789490e-02
4.377700e-02
4.007360e-02
3.678460e-02
3.391000e-02
4.764720e-02
4.385110e-02
4.042280e-02
3.736220e-02
3.466920e-02
4.600210e-02
4.290370e-02
4.004600e-02
3.742900e-02
3.505260e-02
3.126410e-02
2.960990e-02
2.797490e-02
2.635910e-02
2.476250e-02
3.277500e-02
3.093210e-02
2.919690e-02
2.756940e-02
2.604950e-02
3.391000e-02
3.196020e-02
3.018820e-02
2.859400e-02
2.717760e-02
3.466920e-02
3.269420e-02
3.094880e-02
2.943310e-02
2.814700e-02
3.505260e-02
3.313410e-02
3.147870e-02
3.008660e-02
2.895760e-02
2.476250e-02
2.559250e-02
2.587740e-02
2.561730e-02
2.481200e-02
2.604950e-02
2.635530e-02
2.632850e-02
2.596910e-02
2.527710e-02
2.717760e-02
2.702910e-02
2.673880e-02
2.630680e-02
2.573290e-02
2.814700e-02
2.761400e-02
2.710840e-02
2.663020e-02
2.617930e-02
2.895760e-02
2.811000e-02
2.743730e-02
2.693950e-02
2.661650e-02
2.600690e-02
2.604860e-02
2.608840e-02
2.612630e-02
2.616240e-02
2.630990e-02
2.637480e-02
2.643720e-02
2.649720e-02
2.655470e-02
2.659390e-02
2.668090e-02
2.676450e-02
2.684460e-02
2.692130e-02
2.685910e-02
2.696700e-02
2.707010e-02
2.716850e-02
2.726210e-02
2.710540e-02
2.723290e-02
2.735400e-02
2.746880e-02
2.757730e-02
2.616240e-02
2.609170e-02
2.606200e-02
2.607340e-02
2.612600e-02
2.655470e-02
2.651040e-02
2.650180e-02
2.652900e-02
2.659180e-02
2.692130e-02
2.690240e-02
2.691410e-02
2.695640e-02
2.702910e-02
2.726210e-02
2.726770e-02
2.729880e-02
2.735560e-02
2.743800e-02
2.757730e-02
2.760620e-02
2.765600e-02
2.772680e-02
2.781850e-02
2.612600e-02
2.603530e-02
2.604880e-02
2.616660e-02
2.638860e-02
2.659180e-02
2.654790e-02
2.659170e-02
2.672330e-02
2.694250e-02
2.702910e-02
2.702490e-02
2.709460e-02
2.723830e-02
2.745590e-02
2.743800e-02
2.746630e-02
2.755750e-02
2.771170e-02
2.792880e-02
2.781850e-02
2.787200e-02
2.798040e-02
2.814340e-02
2.836120e-02
2.638860e-02
2.651710e-02
2.683810e-02
2.735150e-02
2.805750e-02
2.694250e-02
2.714260e-02
2.749770e-02
2.800780e-02
2.867290e-02
2.745590e-02
2.770520e-02
2.808060e-02
2.858220e-02
2.920990e-02
2.792880e-02
2.820480e-02
2.858670e-02
2.907460e-02
2.966850e-02
2.836120e-02
2.864150e-02
2.901610e-02
2.948520e-02
3.004870e-02
2.805750e-02
2.913660e-02
3.049510e-02
3.213300e-02
3.405020e-02
2.867290e-02
2.973040e-02
3.096600e-02
3.237980e-02
3.397170e-02
2.920990e-02
3.023470e-02
3.136460e-02
3.259970e-02
3.394000e-02
2.966850e-02
3.064940e-02
3.169080e-02
3.279280e-02
3.395520e-02
3.004870e-02
3.097470e-02
3.194480e-02
3.295890e-02
3.401720e-02
3.405020e-02
3.820650e-02
4.197070e-02
4.534300e-02
4.832330e-02
3.397170e-02
3.719970e-02
4.016500e-02
4.286750e-02
4.530720e-02
3.394000e-02
3.642500e-02
3.873630e-02
4.087390e-02
4.283780e-02
3.395520e-02
3.588220e-02
3.768450e-02
3.936220e-02
4.091520e-02
3.401720e-02
3.557140e-02
3.700980e-02
3.833240e-02
3.953930e-02
4.832330e-02
4.883950e-02
4.862470e-02
4.767890e-02
4.600210e-02
4.530720e-02
4.596220e-02
4.601270e-02
4.545860e-02
4.430010e-02
4.283780e-02
4.355330e-02
4.377380e-02
4.349920e-02
4.272940e-02
4.091520e-02
4.161290e-02
4.190800e-02
4.180040e-02
4.129010e-02
3.953930e-02
4.014090e-02
4.041520e-02
4.036230e-02
3.998210e-02
4.600210e-02
4.290370e-02
4.004600e-02
3.742900e-02
3.505260e-02
4.430010e-02
4.181940e-02
3.947230e-02
3.725890e-02
3.517900e-02
4.272940e-02
4.077030e-02
3.886300e-02
3.700740e-02
3.520360e-02
4.129010e-02
3.975650e-02
3.821800e-02
3.667460e-02
3.512630e-02
3.998210e-02
3.877800e-02
3.753750e-02
3.626050e-02
3.494720e-02
3.505260e-02
3.313410e-02
3.147870e-02
3.008660e-02
2.895760e-02
3.517900e-02
3.340740e-02
3.186670e-02
3.055680e-02
2.947780e-02
3.520360e-02
3.357760e-02
3.215080e-02
3.092300e-02
2.989440e-02
3.512630e-02
3.364470e-02
3.233100e-02
3.118530e-02
3.020760e-02
3.494720e-02
3.360860e-02
3.240740e-02
3.134360e-02
3.041720e-02
2.895760e-02
2.811000e-02
2.743730e-02
2.693950e-02
2.661650e-02
2.947780e-02
2.859620e-02
2.788440e-02
2.734220e-02
2.696970e-02
2.989440e-02
2.900270e-02
2.827070e-02
2.769860e-02
2.728620e-02
3.020760e-02
2.932940e-02
2.859640e-02
2.800860e-02
2.756610e-02
3.041720e-02
2.957630e-02
2.886130e-02
2.827240e-02
2.780940e-02
2.710540e-02
2.723290e-02
2.735400e-02
2.746880e-02
2.757730e-02
2.733260e-02
2.747360e-02
2.760840e-02
2.773680e-02
2.785890e-02
2.754220e-02
2.769500e-02
2.784120e-02
2.798090e-02
2.811400e-02
2.773410e-02
2.789690e-02
2.805260e-02
2.820120e-02
2.834260e-02