<?xml version="1.0"?>
<VTKFile type="UnstructuredGrid" version="0.1" byte_order="LittleEndian" compressor="vtkZLibDataCompressor">
<UnstructuredGrid>
<Piece NumberOfPoints="2500" NumberOfCells="1600">
<Points>
<DataArray type="Float32" NumberOfComponents="3" format="ascii">
-3.630000e+00 0.000000e+00 0.000000e+00
-3.448500e+00 0.000000e+00 0.000000e+00
-3.267000e+00 0.000000e+00 0.000000e+00
-3.085500e+00 0.000000e+00 0.000000e+00
-2.904000e+00 0.000000e+00 0.000000e+00
-3.630000e+00 1.282500e-01 0.000000e+00
-3.448500e+00 1.282500e-01 0.000000e+00
-3.267000e+00 1.282500e-01 0.000000e+00
-3.085500e+00 1.282500e-01 0.000000e+00
-2.904000e+00 1.282500e-01 0.000000e+00
-3.630000e+00 2.565000e-01 0.000000e+00
-3.448500e+00 2.565000e-01 0.000000e+00
-3.267000e+00 2.565000e-01 0.000000e+00
-3.085500e+00 2.565000e-01 0.000000e+00
-2.904000e+00 2.565000e-01 0.000000e+00
-3.630000e+00 3.847500e-01 0.000000e+00
-3.448500e+00 3.847500e-01 0.000000e+00
-3.267000e+00 3.847500e-01 0.000000e+00
-3.085500e+00 3.847500e-01 0.000000e+00
-2.904000e+00 3.847500e-01 0.000000e+00
-3.630000e+00 5.130000e-01 0.000000e+00
-3.448500e+00 5.130000e-01 0.000000e+00
-3.267000e+00 5.130000e-01 0.000000e+00
-3.085500e+00 5.130000e-01 0.000000e+00
-2.904000e+00 5.130000e-01 0.000000e+00
-2.904000e+00 0.000000e+00 0.000000e+00
-2.722500e+00 0.000000e+00 0.000000e+00
-2.541000e+00 0.000000e+00 0.000000e+00
-2.359500e+00 0.000000e+00 0.000000e+00
-2.178000e+00 0.000000e+00 0.000000e+00
-2.904000e+00 1.282500e-01 0.000000e+00
-2.722500e+00 1.282500e-01 0.000000e+00
-2.541000e+00 1.282500e-01 0.000000e+00
-2.359500e+00 1.282500e-01 0.000000e+00
-2.178000e+00 1.282500e-01 0.000000e+00
-2.904000e+00 2.565000e-01 0.000000e+00
-2.722500e+00 2.565000e-01 0.000000e+00
-2.541000e+00 2.565000e-01 0.000000e+00
-2.359500e+00 2.565000e-01 0.000000e+00
-2.178000e+00 2.565000e-01 0.000000e+00
-2.904000e+00 3.847500e-01 0.000000e+00
-2.722500e+00 3.847500e-01 0.000000e+00
-2.541000e+00 3.847500e-01 0.000000e+00
-2.359500e+00 3.847500e-01 0.000000e+00
-2.178000e+00 3.847500e-01 0.000000e+00
-2.904000e+00 5.130000e-01 0.000000e+00
-2.722500e+00 5.130000e-01 0.000000e+00
-2.541000e+00 5.130000e-01 0.000000e+00
-2.359500e+00 5.130000e-01 0.000000e+00
-2.178000e+00 5.130000e-01 0.000000e+00
-2.178000e+00 0.000000e+00 0.000000e+00
-1.996500e+00 0.000000e+00 0.000000e+00
-1.815000e+00 0.000000e+00 0.000000e+00
-1.633500e+00 0.000000e+00 0.000000e+00
-1.452000e+00 0.000000e+00 0.000000e+00
-2.178000e+00 1.282500e-01 0.000000e+00
-1.996500e+00 1.282500e-01 0.000000e+00
-1.815000e+00 1.282500e-01 0.000000e+00
-1.633500e+00 1.282500e-01 0.000000e+00
-1.452000e+00 1.282500e-01 0.000000e+00
-2.178000e+00 2.565000e-01 0.000000e+00
-1.996500e+00 2.565000e-01 0.000000e+00
-1.815000e+00 2.565000e-01 0.000000e+00
-1.633500e+00 2.565000e-01 0.000000e+00
-1.452000e+00 2.565000e-01 0.000000e+00
-2.178000e+00 3.847500e-01 0.000000e+00
-1.996500e+00 3.847500e-01 0.000000e+00
-1.815000e+00 3.847500e-01 0.000000e+00
-1.633500e+00 3.847500e-01 0.000000e+00
-1.452000e+00 3.847500e-01 0.000000e+00
-2.178000e+00 5.130000e-01 0.000000e+00
-1.996500e+00 5.130000e-01 0.000000e+00
-1.815000e+00 5.130000e-01 0.000000e+00
-1.633500e+00 5.130000e-01 0.000000e+00
-1.452000e+00 5.130000e-01 0.000000e+00
-1.452000e+00 0.000000e+00 0.000000e+00
-1.270500e+00 0.000000e+00 0.000000e+00
-1.089000e+00 0.000000e+00 0.000000e+00
-9.075000e-01 0.000000e+00 0.000000e+00
-7.260000e-01 0.000000e+00 0.000000e+00
-1.452000e+00 1.282500e-01 0.000000e+00
-1.270500e+00 1.282500e-01 0.000000e+00
-1.089000e+00 1.282500e-01 0.000000e+00
-9.075000e-01 1.282500e-01 0.000000e+00
-7.260000e-01 1.282500e-01 0.000000e+00
-1.452000e+00 2.565000e-01 0.000000e+00
-1.270500e+00 2.565000e-01 0.000000e+00
-1.089000e+00 2.565000e-01 0.000000e+00
-9.075000e-01 2.565000e-01 0.000000e+00
-7.260000e-01 2.565000e-01 0.000000e+00
-1.452000e+00 3.847500e-01 0.000000e+00
-1.270500e+00 3.847500e-01 0.000000e+00
-1.089000e+00 3.847500e-01 0.000000e+00
-9.075000e-01 3.847500e-01 0.000000e+00
-7.260000e-01 3.847500e-01 0.000000e+00
-1.452000e+00 5.130000e-01 0.000000e+00
-1.270500e+00 5.130000e-01 0.000000e+00
-1.089000e+00 5.130000e-01 0.000000e+00
-9.075000e-01 5.130000e-01 0.000000e+00
-7.260000e-01 5.130000e-01 0.000000e+00
-7.260000e-01 0.000000e+00 0.000000e+00
-5.445000e-01 0.000000e+00 0.000000e+00
-3.630000e-01 0.000000e+00 0.000000e+00
-1.815000e-01 0.000000e+00 0.000000e+00
0.000000e+00 0.000000e+00 0.000000e+00
-7.260000e-01 1.282500e-01 0.000000e+00
-5.445000e-01 1.282500e-01 0.000000e+00
-3.630000e-01 1.282500e-01 0.000000e+00
-1.815000e-01 1.282500e-01 0.000000e+00
0.000000e+00 1.282500e-01 0.000000e+00
-7.260000e-01 2.565000e-01 0.000000e+00
-5.445000e-01 2.565000e-01 0.000000e+00
-3.630000e-01 2.565000e-01 0.000000e+00
-1.815000e-01 2.565000e-01 0.000000e+00
0.000000e+00 2.565000e-01 0.000000e+00
-7.260000e-01 3.847500e-01 0.000000e+00
-5.445000e-01 3.847500e-01 0.000000e+00
-3.630000e-01 3.847500e-01 0.000000e+00
-1.815000e-01 3.847500e-01 0.000000e+00
0.000000e+00 3.847500e-01 0.000000e+00
-7.260000e-01 5.130000e-01 0.000000e+00
-5.445000e-01 5.130000e-01 0.000000e+00
-3.630000e-01 5.130000e-01 0.000000e+00
-1.815000e-01 5.130000e-01 0.000000e+00
0.000000e+00 5.130000e-01 0.000000e+00
0.000000e+00 0.000000e+00 0.000000e+00
1.815000e-01 0.000000e+00 0.000000e+00
3.630000e-01 0.000000e+00 0.000000e+00
5.445000e-01 0.000000e+00 0.000000e+00
7.260000e-01 0.000000e+00 0.000000e+00
0.000000e+00 1.282500e-01 0.000000e+00
1.815000e-01 1.282500e-01 0.000000e+00
3.630000e-01 1.282500e-01 0.000000e+00
5.445000e-01 1.282500e-01 0.000000e+00
7.260000e-01 1.282500e-01 0.000000e+00
0.000000e+00 2.565000e-01 0.000000e+00
1.815000e-01 2.565000e-01 0.000000e+00
3.630000e-01 2.565000e-01 0.000000e+00
5.445000e-01 2.565000e-01 0.000000e+00
7.260000e-01 2.565000e-01 0.000000e+00
0.000000e+00 3.847500e-01 0.000000e+00
1.815000e-01 3.847500e-01 0.000000e+00
3.630000e-01 3.847500e-01 0.000000e+00
5.445000e-01 3.847500e-01 0.000000e+00
7.260000e-01 3.847500e-01 0.000000e+00
0.000000e+00 5.130000e-01 0.000000e+00
1.815000e-01 5.130000e-01 0.000000e+00
3.630000e-01 5.130000e-01 0.000000e+00
5.445000e-01 5.130000e-01 0.000000e+00
7.260000e-01 5.130000e-01 0.000000e+00
7.260000e-01 0.000000e+00 0.000000e+00
9.075000e-01 0.000000e+00 0.000000e+00
1.089000e+00 0.000000e+00 0.000000e+00
1.270500e+00 0.000000e+00 0.000000e+00
1.452000e+00 0.000000e+00 0.000000e+00
7.260000e-01 1.282500e-01 0.000000e+00
9.075000e-01 1.282500e-01 0.000000e+00
1.089000e+00 1.282500e-01 0.000000e+00
1.270500e+00 1.282500e-01 0.000000e+00
1.452000e+00 1.282500e-01 0.000000e+00
7.260000e-01 2.565000e-01 0.000000e+00
9.075000e-01 2.565000e-01 0.000000e+00
1.089000e+00 2.565000e-01 0.000000e+00
1.270500e+00 2.565000e-01 0.000000e+00
1.452000e+00 2.565000e-01 0.000000e+00
7.260000e-01 3.847500e-01 0.000000e+00
9.075000e-01 3.847500e-01 0.000000e+00
1.089000e+00 3.847500e-01 0.000000e+00
1.270500e+00 3.847500e-01 0.000000e+00
1.452000e+00 3.847500e-01 0.000000e+00
7.260000e-01 5.130000e-01 0.000000e+00
9.075000e-01 5.130000e-01 0.000000e+00
1.089000e+00 5.130000e-01 0.000000e+00
1.270500e+00 5.130000e-01 0.000000e+00
1.452000e+00 5.130000e-01 0.000000e+00
1.452000e+00 0.000000e+00 0.000000e+00
1.633500e+00 0.000000e+00 0.000000e+00
1.815000e+00 0.000000e+00 0.000000e+00
1.996500e+00 0.000000e+00 0.000000e+00
2.178000e+00 0.000000e+00 0.000000e+00
1.452000e+00 1.282500e-01 0.000000e+00
1.633500e+00 1.282500e-01 0.000000e+00
1.815000e+00 1.282500e-01 0.000000e+00
1.996500e+00 1.282500e-01 0.000000e+00
2.178000e+00 1.282500e-01 0.000000e+00
1.452000e+00 2.565000e-01 0.000000e+00
1.633500e+00 2.565000e-01 0.000000e+00
1.815000e+00 2.565000e-01 0.000000e+00
1.996500e+00 2.565000e-01 0.000000e+00
2.178000e+00 2.565000e-01 0.000000e+00
1.452000e+00 3.847500e-01 0.000000e+00
1.633500e+00 3.847500e-01 0.000000e+00
1.815000e+00 3.847500e-01 0.000000e+00
1.996500e+00 3.847500e-01 0.000000e+00
2.178000e+00 3.847500e-01 0.000000e+00
1.452000e+00 5.130000e-01 0.000000e+00
1.633500e+00 5.130000e-01 0.000000e+00
1.815000e+00 5.130000e-01 0.000000e+00
1.996500e+00 5.130000e-01 0.000000e+00
2.178000e+00 5.130000e-01 0.000000e+00
2.178000e+00 0.000000e+00 0.000000e+00
2.359500e+00 0.000000e+00 0.000000e+00
2.541000e+00 0.000000e+00 0.000000e+00
2.722500e+00 0.000000e+00 0.000000e+00
2.904000e+00 0.000000e+00 0.000000e+00
2.178000e+00 1.282500e-01 0.000000e+00
2.359500e+00 1.282500e-01 0.000000e+00
2.541000e+00 1.282500e-01 0.000000e+00
2.722500e+00 1.282500e-01 0.000000e+00
2.904000e+00 1.282500e-01 0.000000e+00
2.178000e+00 2.565000e-01 0.000000e+00
2.359500e+00 2.565000e-01 0.000000e+00
2.541000e+00 2.565000e-01 0.000000e+00
2.722500e+00 2.565000e-01 0.000000e+00
2.904000e+00 2.565000e-01 0.000000e+00
2.178000e+00 3.847500e-01 0.000000e+00
2.359500e+00 3.847500e-01 0.000000e+00
2.541000e+00 3.847500e-01 0.000000e+00
2.722500e+00 3.847500e-01 0.000000e+00
2.904000e+00 3.847500e-01 0.000000e+00
2.178000e+00 5.130000e-01 0.000000e+00
2.359500e+00 5.130000e-01 0.000000e+00
2.541000e+00 5.130000e-01 0.000000e+00
2.722500e+00 5.130000e-01 0.000000e+00
2.904000e+00 5.130000e-01 0.000000e+00
2.904000e+00 0.000000e+00 0.000000e+00
3.085500e+00 0.000000e+00 0.000000e+00
3.267000e+00 0.000000e+00 0.000000e+00
3.448500e+00 0.000000e+00 0.000000e+00
3.630000e+00 0.000000e+00 0.000000e+00
2.904000e+00 1.282500e-01 0.000000e+00
3.085500e+00 1.282500e-01 0.000000e+00
3.267000e+00 1.282500e-01 0.000000e+00
3.448500e+00 1.282500e-01 0.000000e+00
3.630000e+00 1.282500e-01 0.000000e+00
2.904000e+00 2.565000e-01 0.000000e+00
3.085500e+00 2.565000e-01 0.000000e+00
3.267000e+00 2.565000e-01 0.000000e+00
3.448500e+00 2.565000e-01 0.000000e+00
3.630000e+00 2.565000e-01 0.000000e+00
2.904000e+00 3.847500e-01 0.000000e+00
3.085500e+00 3.847500e-01 0.000000e+00
3.267000e+00 3.847500e-01 0.000000e+00
3.448500e+00 3.847500e-01 0.000000e+00
3.630000e+00 3.847500e-01 0.000000e+00
2.904000e+00 5.130000e-01 0.000000e+00
[...]
<PointData>
<DataArray type="Float32" Name="V1" format="ascii">
0.000000e+00
0.000000e+00
0.000000e+00
0.000000e+00
0.000000e+00
1.264110e-02
1.099710e-02
9.651150e-03
8.603380e-03
7.853770e-03
2.028400e-02
1.817340e-02
1.638780e-02
1.492740e-02
1.379200e-02
2.292870e-02
2.152890e-02
2.021000e-02
1.897190e-02
1.781460e-02
2.057510e-02
2.106370e-02
2.111770e-02
2.073700e-02
1.992170e-02
0.000000e+00
0.000000e+00
0.000000e+00
0.000000e+00
0.000000e+00
7.853770e-03
6.812710e-03
6.096020e-03
5.703700e-03
5.635760e-03
1.379200e-02
1.220300e-02
1.104030e-02
1.030380e-02
9.993590e-03
1.781460e-02
1.617090e-02
1.483280e-02
1.380040e-02
1.307350e-02
1.992170e-02
1.871640e-02
1.747360e-02
1.619330e-02
1.487550e-02
0.000000e+00
0.000000e+00
0.000000e+00
0.000000e+00
0.000000e+00
5.635760e-03
5.628610e-03
5.655240e-03
5.715640e-03
5.809810e-03
9.993590e-03
9.793380e-03
9.597730e-03
9.406620e-03
9.220060e-03
1.307350e-02
1.249430e-02
1.182750e-02
1.107290e-02
1.023070e-02
1.487550e-02
1.373140e-02
1.234440e-02
1.071460e-02
8.841880e-03
0.000000e+00
0.000000e+00
0.000000e+00
0.000000e+00
0.000000e+00
5.809810e-03
4.467420e-03
3.964160e-03
4.300040e-03
5.475060e-03
9.220060e-03
6.625600e-03
5.112840e-03
4.681770e-03
5.332390e-03
1.023070e-02
6.474550e-03
3.446030e-03
1.145180e-03
-4.280040e-04
8.841880e-03
4.014270e-03
-1.036270e-03
-6.309730e-03
-1.180610e-02
0.000000e+00
0.000000e+00
0.000000e+00
0.000000e+00
0.000000e+00
5.475060e-03
-2.852630e-03
-1.272180e-02
-2.413260e-02
-3.708490e-02
5.332390e-03
-9.478890e-03
-2.539740e-02
-4.242330e-02
-6.055640e-02
-4.280040e-04
-1.987880e-02
-3.802680e-02
-5.487200e-02
-7.041450e-02
-1.180610e-02
-3.405230e-02
-5.060990e-02
-6.147890e-02
-6.665920e-02
0.000000e+00
0.000000e+00
0.000000e+00
0.000000e+00
0.000000e+00
-3.708490e-02
-3.435850e-02
-3.107210e-02
-2.722570e-02
-2.281950e-02
-6.055640e-02
-5.551590e-02
-4.951970e-02
-4.256790e-02
-3.466030e-02
-7.041450e-02
-6.347230e-02
-5.534300e-02
-4.602640e-02
-3.552260e-02
-6.665920e-02
-5.822780e-02
-4.854180e-02
-3.760130e-02
-2.540620e-02
0.000000e+00
0.000000e+00
0.000000e+00
0.000000e+00
0.000000e+00
-2.281950e-02
-1.894950e-02
-1.492080e-02
-1.073340e-02
-6.387330e-03
-3.466030e-02
-2.887680e-02
-2.278930e-02
-1.639770e-02
-9.702150e-03
-3.552260e-02
-2.978190e-02
-2.360530e-02
-1.699280e-02
-9.944460e-03
-2.540620e-02
-2.166480e-02
-1.736900e-02
-1.251880e-02
-7.114260e-03
0.000000e+00
0.000000e+00
0.000000e+00
0.000000e+00
0.000000e+00
-6.387330e-03
-1.707860e-03
1.741450e-03
3.960600e-03
4.949580e-03
-9.702150e-03
-2.280980e-03
3.246920e-03
6.881550e-03
8.622900e-03
-9.944460e-03
-1.719350e-03
4.516420e-03
8.762850e-03
1.102000e-02
-7.114260e-03
-2.298440e-05
5.549940e-03
9.604510e-03
1.214070e-02
0.000000e+00
0.000000e+00
0.000000e+00
0.000000e+00
0.000000e+00
4.949580e-03
6.090480e-03
7.069150e-03
7.885610e-03
8.539850e-03
8.622900e-03
1.048690e-02
1.208420e-02
1.341480e-02
1.447880e-02
1.102000e-02
1.318920e-02
1.504510e-02
1.658770e-02
1.781690e-02
1.214070e-02
1.419750e-02
1.595200e-02
1.740420e-02
1.855410e-02
0.000000e+00
0.000000e+00
0.000000e+00
0.000000e+00
0.000000e+00
8.539850e-03
9.186120e-03
9.841500e-03
1.050600e-02
1.117960e-02
1.447880e-02
1.569380e-02
1.684880e-02
1.794360e-02
1.897840e-02
1.781690e-02
1.952320e-02
2.102190e-02
2.231300e-02
2.339650e-02
1.855410e-02
2.067410e-02
2.236080e-02
2.361400e-02
2.443390e-02
2.057510e-02
2.106370e-02
2.111770e-02
2.073700e-02
1.992170e-02
2.078850e-02
2.096240e-02
2.093940e-02
2.071950e-02
2.030270e-02
2.103660e-02
2.095440e-02
2.083500e-02
2.067810e-02
2.048400e-02
2.131930e-02
2.103980e-02
2.080440e-02
2.061290e-02
2.046550e-02
2.163650e-02
2.121860e-02
2.084770e-02
2.052390e-02
2.024730e-02
1.992170e-02
1.871640e-02
1.747360e-02
1.619330e-02
1.487550e-02
2.030270e-02
1.949760e-02
1.849530e-02
1.729560e-02
1.589850e-02
2.048400e-02
1.996740e-02
1.916750e-02
1.808410e-02
1.671740e-02
2.046550e-02
2.012570e-02
1.949020e-02
1.855900e-02
1.733210e-02
2.024730e-02
1.997250e-02
1.946350e-02
1.872020e-02
1.774260e-02
1.487550e-02
1.373140e-02
1.234440e-02
1.071460e-02
8.841880e-03
1.589850e-02
1.374950e-02
1.192140e-02
1.041430e-02
9.228100e-03
1.671740e-02
1.357760e-02
1.148810e-02
1.044890e-02
1.046000e-02
1.733210e-02
1.321580e-02
1.104460e-02
1.081850e-02
1.253750e-02
1.774260e-02
1.266410e-02
1.059100e-02
1.152320e-02
1.546070e-02
8.841880e-03
4.014270e-03
-1.036270e-03
-6.309730e-03
-1.180610e-02
9.228100e-03
2.293430e-03
-4.689250e-03
-1.172000e-02
-1.879870e-02
1.046000e-02
1.608770e-03
-6.709590e-03
-1.449510e-02
-2.174780e-02
1.253750e-02
1.960290e-03
-7.097280e-03
-1.463520e-02
-2.065340e-02
1.546070e-02
3.347980e-03
-5.852330e-03
-1.214020e-02
-1.551570e-02
-1.180610e-02
-3.405230e-02
-5.060990e-02
-6.147890e-02
-6.665920e-02
-1.879870e-02
-3.677950e-02
-5.073020e-02
-6.065090e-02
-6.654150e-02
-2.174780e-02
-3.446820e-02
-4.464330e-02
-5.227320e-02
-5.735780e-02
-2.065340e-02
-2.711850e-02
-3.234930e-02
-3.634580e-02
-3.910820e-02
-1.551570e-02
-1.473040e-02
-1.384810e-02
-1.286880e-02
-1.179250e-02
-6.665920e-02
-5.822780e-02
-4.854180e-02
-3.760130e-02
-2.540620e-02
-6.654150e-02
-5.798540e-02
-4.763420e-02
-3.548810e-02
-2.154690e-02
-5.735780e-02
-4.969410e-02
-4.012850e-02
-2.866120e-02
-1.529200e-02
-3.910820e-02
-3.335390e-02
-2.602470e-02
-1.712050e-02
-6.641370e-03
-1.179250e-02
-8.964870e-03
-5.322790e-03
-8.661910e-04
4.404910e-03
-2.540620e-02
-2.166480e-02
-1.736900e-02
-1.251880e-02
-7.114260e-03
-2.154690e-02
-1.758260e-02
-1.363580e-02
-9.706710e-03
-5.795210e-03
-1.529200e-02
-1.145980e-02
-8.157990e-03
-5.386650e-03
-3.145750e-03
-6.641370e-03
-3.296380e-03
-9.354620e-04
4.413770e-04
8.341380e-04
4.404910e-03
6.907590e-03
8.031730e-03
7.777350e-03
6.144440e-03
-7.114260e-03
-2.298440e-05
5.549940e-03
9.604510e-03
1.214070e-02
-5.795210e-03
1.771190e-03
7.514650e-03
1.143520e-02
1.353270e-02
-3.145750e-03
4.217780e-03
9.676950e-03
1.323180e-02
1.488230e-02
8.341380e-04
7.316770e-03
1.203690e-02
1.499440e-02
1.618940e-02
6.144440e-03
1.106820e-02
1.459430e-02
1.672300e-02
1.745410e-02
1.214070e-02
1.419750e-02
1.595200e-02
1.740420e-02
1.855410e-02
1.353270e-02
1.524960e-02
1.671850e-02
1.793950e-02
1.891240e-02
1.488230e-02
1.628480e-02
1.748370e-02
1.847890e-02
1.927050e-02
1.618940e-02
1.730310e-02
1.824750e-02
1.902250e-02
1.962820e-02
1.745410e-02
1.830450e-02
1.901000e-02
1.957030e-02
1.998560e-02
1.855410e-02
2.067410e-02
2.236080e-02
2.361400e-02
2.443390e-02
1.891240e-02
2.115600e-02
2.289570e-02
2.413130e-02
2.486300e-02
1.927050e-02
2.155980e-02
2.328670e-02
2.445130e-02
2.505360e-02
1.962820e-02
2.188530e-02
2.353390e-02
2.457410e-02
2.500570e-02
1.998560e-02
2.213270e-02
2.363730e-02
2.449950e-02
2.471930e-02
2.163650e-02
2.121860e-02
2.084770e-02
2.052390e-02
2.024730e-02
2.197900e-02
2.155610e-02
2.118870e-02
2.087690e-02
2.062060e-02
2.233590e-02
2.193480e-02
2.159290e-02
2.131020e-02
2.108670e-02
2.270730e-02
2.235470e-02
2.206020e-02
2.182380e-02
2.164550e-02
2.309330e-02
2.281590e-02
2.259080e-02
2.241790e-02
2.229720e-02
2.024730e-02
1.997250e-02
1.946350e-02
1.872020e-02
1.774260e-02
2.062060e-02
2.012540e-02
1.963420e-02
1.914700e-02
1.866380e-02
2.108670e-02
2.040500e-02
1.992690e-02
1.965250e-02
1.958160e-02
2.164550e-02
2.081130e-02
2.034170e-02
2.023660e-02
2.049600e-02
2.229720e-02
2.134440e-02
2.087850e-02
2.089940e-02
2.140710e-02
1.774260e-02
1.266410e-02
1.059100e-02
1.152320e-02
1.546070e-02
1.866380e-02
1.321450e-02
1.131030e-02
1.295120e-02
1.813710e-02
1.958160e-02
1.427010e-02
1.260720e-02
1.459290e-02
2.022730e-02
2.049600e-02
1.583090e-02
1.448170e-02
1.644840e-02
2.173110e-02
2.140710e-02
1.789690e-02
1.693370e-02
1.851770e-02
2.264860e-02
1.546070e-02
3.347980e-03
-5.852330e-03
-1.214020e-02
-1.551570e-02
1.813710e-02
7.001140e-03
-1.072420e-03
-6.083530e-03
-8.032210e-03
2.022730e-02
1.128780e-02
4.899080e-03
1.061040e-03
-2.263050e-04
2.173110e-02
1.620800e-02
1.206220e-02
9.293510e-03
7.902030e-03
2.264860e-02
2.176180e-02
2.041690e-02
1.861390e-02
1.635280e-02
-1.551570e-02
-1.473040e-02
-1.384810e-02
-1.286880e-02
-1.179250e-02
-8.032210e-03
4.505920e-04
7.863760e-03
1.420730e-02
1.948120e-02
-2.263050e-04
1.329650e-02
2.496330e-02
3.477410e-02
4.272900e-02
7.902030e-03
2.380720e-02
3.745040e-02
4.883160e-02
5.795090e-02
1.635280e-02
3.198280e-02
4.532520e-02
5.637990e-02
6.514690e-02
-1.179250e-02
-8.964870e-03
-5.322790e-03
-8.661910e-04
4.404910e-03
1.948120e-02
1.482200e-02
1.218220e-02
1.156200e-02
1.296120e-02
4.272900e-02
3.371090e-02
2.717120e-02
2.311000e-02
2.152720e-02
5.795090e-02
4.770200e-02
3.964430e-02
3.377800e-02
3.010300e-02
6.514690e-02
5.679510e-02
4.960140e-02
4.356590e-02
3.868840e-02
4.404910e-03
6.907590e-03
8.031730e-03
7.777350e-03
6.144440e-03
1.296120e-02
1.453580e-02
1.480750e-02
1.377620e-02
1.144200e-02
2.152720e-02
2.183450e-02
2.104840e-02
1.916880e-02
1.619580e-02
3.010300e-02
2.880360e-02
2.675440e-02
2.395510e-02
2.040580e-02
3.868840e-02
3.544320e-02
3.192540e-02
2.813510e-02
2.407210e-02
6.144440e-03
1.106820e-02
1.459430e-02
1.672300e-02
1.745410e-02
1.144200e-02
1.447490e-02
1.666080e-02
1.799960e-02
1.849140e-02
1.619580e-02
1.763110e-02
1.867100e-02
1.931560e-02
1.956470e-02
2.040580e-02
2.053680e-02
2.062520e-02
2.067090e-02
2.067400e-02
2.407210e-02
2.319200e-02
2.252310e-02
2.206550e-02
2.181930e-02
1.745410e-02
1.830450e-02
1.901000e-02
1.957030e-02
1.998560e-02
1.849140e-02
1.936070e-02
2.002190e-02
2.047510e-02
2.072010e-02
1.956470e-02
2.040110e-02
2.099160e-02
2.133620e-02
2.143480e-02
2.067400e-02
2.142580e-02
2.191910e-02
2.215370e-02
2.212980e-02
2.181930e-02
2.243470e-02
2.280420e-02
2.292760e-02
2.280500e-02
1.998560e-02
2.213270e-02
2.363730e-02
2.449950e-02
2.471930e-02
2.072010e-02
2.247740e-02
2.372940e-02
2.447610e-02
2.471740e-02
2.143480e-02
2.282200e-02
2.383320e-02
2.446840e-02
2.472740e-02
2.212980e-02
2.316660e-02
2.394880e-02
2.447640e-02
2.474940e-02
2.280500e-02
2.351100e-02
2.407610e-02
2.450020e-02
2.478340e-02
2.309330e-02
2.281590e-02
2.259080e-02
2.241790e-02
2.229720e-02
2.348320e-02
2.323720e-02
2.305760e-02
2.294440e-02
2.289770e-02
2.386930e-02
2.365120e-02
2.351210e-02
2.345220e-02
2.347140e-02
2.425160e-02
2.405790e-02
2.395440e-02
2.394130e-02
2.401850e-02
2.463000e-02
2.445720e-02
2.438440e-02
2.441170e-02
2.453890e-02
2.229720e-02
2.134440e-02
2.087850e-02
2.089940e-02
2.140710e-02
2.289770e-02
2.202680e-02
2.161890e-02
2.167400e-02
2.219190e-02
2.347140e-02
2.271320e-02
2.238240e-02
2.247930e-02
2.300360e-02
2.401850e-02
2.340340e-02
2.316890e-02
2.331520e-02
2.384220e-02
2.453890e-02
2.409750e-02
2.397840e-02
2.418180e-02
2.470760e-02
2.140710e-02
1.789690e-02
1.693370e-02
1.851770e-02
2.264860e-02
2.219190e-02
1.998720e-02
1.952070e-02
2.079260e-02
2.380280e-02
2.300360e-02
2.183540e-02
2.179200e-02
2.287350e-02
2.507990e-02
2.384220e-02
2.344170e-02
2.374780e-02
2.476050e-02
2.648000e-02
2.470760e-02
2.480590e-02
2.538790e-02
2.645360e-02
2.800300e-02
2.264860e-02
2.176180e-02
2.041690e-02
1.861390e-02
1.635280e-02
2.380280e-02
2.553280e-02
2.657890e-02
2.694100e-02
2.661910e-02
2.507990e-02
2.838490e-02
3.100090e-02
3.292790e-02
3.416590e-02
2.648000e-02
3.031800e-02
3.368290e-02
3.657460e-02
3.899320e-02
2.800300e-02
3.133220e-02
3.462490e-02
3.788110e-02
4.110090e-02
1.635280e-02
3.198280e-02
4.532520e-02
5.637990e-02
6.514690e-02
2.661910e-02
3.966320e-02
5.098320e-02
6.057910e-02
6.845080e-02
3.416590e-02
4.487680e-02
5.424180e-02
6.226110e-02
6.893450e-02
3.899320e-02
4.762340e-02
5.510090e-02
6.142580e-02
6.659810e-02
4.110090e-02
4.790310e-02
5.356060e-02
5.807340e-02
6.144140e-02
6.514690e-02
5.679510e-02
4.960140e-02
4.356590e-02
3.868840e-02
6.845080e-02
6.114150e-02
5.433080e-02
4.801880e-02
4.220550e-02
6.893450e-02
6.274200e-02
5.663860e-02
5.062420e-02
4.469890e-02
6.659810e-02
6.159670e-02
5.652480e-02
5.138210e-02
4.616890e-02
6.144140e-02
5.770570e-02
5.398940e-02
5.029260e-02
4.661520e-02
3.868840e-02
3.544320e-02
3.192540e-02
2.813510e-02
2.407210e-02
4.220550e-02
3.800350e-02
3.394830e-02
3.003970e-02
2.627770e-02
4.469890e-02
3.997580e-02
3.565230e-02
3.172850e-02
2.820430e-02
4.616890e-02
4.136000e-02
3.703760e-02
3.320150e-02
2.985190e-02
4.661520e-02
4.215630e-02
3.810410e-02
3.445880e-02
3.122040e-02
2.407210e-02
2.319200e-02
2.252310e-02
2.206550e-02
2.181930e-02
2.627770e-02
2.522310e-02
2.435020e-02
2.365890e-02
2.314940e-02
2.820430e-02
2.698980e-02
2.594390e-02
2.506640e-02
2.435750e-02
2.985190e-02
2.849210e-02
2.730420e-02
2.628800e-02
2.544370e-02
3.122040e-02
2.973000e-02
2.843120e-02
2.732380e-02
2.640790e-02
2.181930e-02
2.243470e-02
2.280420e-02
2.292760e-02
2.280500e-02
2.314940e-02
2.342940e-02
2.354930e-02
2.350900e-02
2.330850e-02
2.435750e-02
2.434170e-02
2.424150e-02
2.405690e-02
2.378800e-02
2.544370e-02
2.517150e-02
2.488080e-02
2.457150e-02
2.424350e-02
2.640790e-02
2.591900e-02
2.546720e-02
2.505260e-02
2.467510e-02
2.280500e-02
2.351100e-02
2.407610e-02
2.450020e-02
2.478340e-02
2.330850e-02
2.390840e-02
2.436050e-02
2.466480e-02
2.482130e-02
2.378800e-02
2.429010e-02
2.463720e-02
2.482930e-02
2.486650e-02
2.424350e-02
2.465600e-02
2.490610e-02
2.499370e-02
2.491880e-02
2.467510e-02
2.500620e-02
2.516710e-02
2.515780e-02
2.497830e-02
2.463000e-02
2.445720e-02
2.438440e-02
2.441170e-02
2.453890e-02
2.499690e-02
2.486290e-02
2.482460e-02
2.488190e-02
2.503490e-02
2.534870e-02
2.525570e-02
2.525160e-02
2.533620e-02
2.550960e-02
2.568540e-02
2.563560e-02
2.566530e-02
2.577450e-02
2.596310e-02
2.600690e-02
2.600250e-02
2.606580e-02
2.619670e-02
2.639530e-02
2.453890e-02
2.409750e-02
2.397840e-02
2.418180e-02
2.470760e-02
2.503490e-02
2.474260e-02
2.472620e-02
2.498560e-02
2.552090e-02
2.550960e-02
2.534530e-02
2.541480e-02
2.571800e-02
2.625500e-02
2.596310e-02
2.590560e-02
2.604420e-02
2.637910e-02
2.691010e-02
2.639530e-02
2.642340e-02
2.661450e-02
2.696880e-02
2.748610e-02
2.470760e-02
2.480590e-02
2.538790e-02
2.645360e-02
2.800300e-02
2.552090e-02
2.587440e-02
2.659170e-02
2.767300e-02
2.911810e-02
2.625500e-02
2.680580e-02
2.762070e-02
2.869980e-02
3.004310e-02
2.691010e-02
2.760030e-02
2.847500e-02
2.953420e-02
3.077800e-02
2.748610e-02
2.825780e-02
2.915440e-02
3.017610e-02
3.132270e-02
2.800300e-02
3.133220e-02
3.462490e-02
3.788110e-02
4.110090e-02
2.911810e-02
3.221390e-02
3.523580e-02
3.818380e-02
4.105810e-02
3.004310e-02
3.287530e-02
3.561020e-02
3.824770e-02
4.078790e-02
3.077800e-02
3.331670e-02
3.574830e-02
3.807280e-02
4.029030e-02
3.132270e-02
3.353780e-02
3.564990e-02
3.765910e-02
3.956540e-02
4.110090e-02
4.790310e-02
5.356060e-02
5.807340e-02
6.144140e-02
4.105810e-02
4.658680e-02
5.111900e-02
5.465480e-02
5.719400e-02
4.078790e-02
4.518640e-02
4.874640e-02
5.146780e-02
5.335060e-02
4.029030e-02
4.370190e-02
4.644260e-02
4.851230e-02
4.991120e-02
3.956540e-02
4.213330e-02
4.420760e-02
4.578850e-02
4.687580e-02
6.144140e-02
5.770570e-02
5.398940e-02
5.029260e-02
4.661520e-02
5.719400e-02
5.429430e-02
5.134830e-02
4.835610e-02
4.531770e-02
5.335060e-02
5.119250e-02
4.893500e-02
4.657820e-02
4.412200e-02
4.991120e-02
4.840030e-02
4.674960e-02
4.495880e-02
4.302810e-02
4.687580e-02
4.591790e-02
4.479190e-02
4.349800e-02
4.203620e-02
4.661520e-02
4.215630e-02
3.810410e-02
3.445880e-02
3.122040e-02
4.531770e-02
4.140480e-02
3.787530e-02
3.472920e-02
3.196640e-02
4.412200e-02
4.074600e-02
3.770350e-02
3.499460e-02
3.261910e-02
4.302810e-02
4.017980e-02
3.758880e-02
3.525510e-02
3.317870e-02
4.203620e-02
3.970620e-02
3.753100e-02
3.551060e-02
3.364490e-02
3.122040e-02
2.973000e-02
2.843120e-02
2.732380e-02
2.640790e-02
3.196640e-02
3.053040e-02
2.925100e-02
2.812810e-02
2.716180e-02
3.261910e-02
3.120020e-02
2.992190e-02
2.878440e-02
2.778750e-02
3.317870e-02
3.173930e-02
3.044400e-02
2.929260e-02
2.828510e-02
3.364490e-02
3.214780e-02
3.081710e-02
2.965270e-02
2.865450e-02
2.640790e-02
2.591900e-02
2.546720e-02
2.505260e-02
2.467510e-02
2.716180e-02
2.658940e-02
2.607070e-02
2.560540e-02
2.519380e-02
2.778750e-02
2.715830e-02
2.659410e-02
2.609480e-02
2.566040e-02
2.828510e-02
2.762560e-02
2.703750e-02
2.652060e-02
2.607520e-02
2.865450e-02
2.799130e-02
2.740080e-02
2.688300e-02
2.643800e-02
2.467510e-02
2.500620e-02
2.516710e-02
2.515780e-02
2.497830e-02
2.519380e-02
2.533940e-02
2.537180e-02
2.529080e-02
2.509660e-02
2.566040e-02
2.564030e-02
2.555990e-02
2.541930e-02
2.521830e-02
2.607520e-02
2.590900e-02
2.573170e-02
2.554310e-02
2.534340e-02
2.643800e-02
2.614550e-02
2.588690e-02
2.566240e-02
2.547180e-02
2.600690e-02
2.600250e-02
2.606580e-02
2.619670e-02
2.639530e-02
2.630990e-02
2.634250e-02
2.643460e-02
2.658610e-02
2.679710e-02
2.659390e-02
2.666030e-02
2.677830e-02
2.694780e-02
2.716900e-02
2.685910e-02
2.695590e-02
2.709680e-02
2.728180e-02
2.751110e-02
2.710540e-02
2.722920e-02
2.739010e-02
2.758810e-02
2.782320e-02
2.639530e-02
2.642340e-02
2.661450e-02
2.696880e-02
2.748610e-02
2.679710e-02
2.688180e-02
2.710910e-02
2.747890e-02
2.799120e-02
2.716900e-02
2.730200e-02
2.755790e-02
2.793670e-02
2.843850e-02
2.751110e-02
2.768380e-02
2.796080e-02
2.834220e-02
2.882780e-02
2.782320e-02
2.802730e-02
2.831790e-02
2.869520e-02
2.915910e-02
2.748610e-02
2.825780e-02
2.915440e-02
3.017610e-02
3.132270e-02
2.799120e-02
2.877540e-02
2.966090e-02
3.064780e-02
3.173610e-02
2.843850e-02
2.921520e-02
3.007270e-02
3.101100e-02
3.203010e-02
2.882780e-02
2.957710e-02
3.038970e-02
3.126560e-02
3.220490e-02
2.915910e-02
2.986120e-02
3.061210e-02
3.141180e-02
3.226030e-02
3.132270e-02
3.353780e-02
3.564990e-02
3.765910e-02
3.956540e-02
3.173610e-02
3.367370e-02
3.550880e-02
3.724130e-02
3.887110e-02
3.203010e-02
3.372120e-02
3.531120e-02
3.680000e-02
3.818780e-02
3.220490e-02
3.368010e-02
3.505690e-02
3.633530e-02
3.751530e-02
3.226030e-02
3.355050e-02
3.474620e-02
3.584720e-02
3.685370e-02
3.956540e-02
4.213330e-02
4.420760e-02
4.578850e-02
4.687580e-02
3.887110e-02
4.099980e-02
4.270000e-02
4.397190e-02
4.481530e-02
3.818780e-02
3.993610e-02
4.131900e-02
4.233670e-02
4.298890e-02
3.751530e-02
3.894210e-02
4.006460e-02
4.088290e-02
4.139680e-02
3.685370e-02
3.801790e-02
3.893690e-02
3.961050e-02
4.003890e-02
4.687580e-02
4.591790e-02
4.479190e-02
4.349800e-02
4.203620e-02
4.481530e-02
4.403010e-02
4.309440e-02
4.200840e-02
4.077180e-02
4.298890e-02
4.236470e-02
4.160380e-02
4.070630e-02
3.967220e-02
4.139680e-02
4.092160e-02
4.032000e-02
3.959180e-02
3.873720e-02
4.003890e-02
3.970090e-02
3.924300e-02
3.866500e-02
3.796690e-02
4.203620e-02
3.970620e-02
3.753100e-02
3.551060e-02
3.364490e-02
4.077180e-02
3.877850e-02
3.691950e-02
3.519480e-02
3.360430e-02
3.967220e-02
3.798090e-02
3.639770e-02
3.492270e-02
3.355570e-02
3.873720e-02
3.731340e-02
3.596570e-02
3.469430e-02
3.349900e-02
3.796690e-02
3.677600e-02
3.562360e-02
3.450970e-02
3.343430e-02
3.364490e-02
3.214780e-02
3.081710e-02
2.965270e-02
2.865450e-02
3.360430e-02
3.225320e-02
3.103380e-02
2.994630e-02
2.899050e-02
3.355570e-02
3.232350e-02
3.119840e-02
3.018040e-02
2.926950e-02
3.349900e-02
3.235880e-02
3.131090e-02
3.035520e-02
2.949170e-02
3.343430e-02
3.235910e-02
3.137120e-02
3.047050e-02
2.965700e-02
2.865450e-02
2.799130e-02
2.740080e-02
2.688300e-02
2.643800e-02
2.899050e-02
2.832260e-02
2.772380e-02
2.719400e-02
2.673330e-02
2.926950e-02
2.860140e-02
2.799830e-02
2.746020e-02
2.698720e-02
2.949170e-02
2.882760e-02
2.822420e-02
2.768150e-02
2.719960e-02
2.965700e-02
2.900120e-02
2.840160e-02
2.785790e-02
2.737040e-02
2.643800e-02
2.614550e-02
2.588690e-02
2.566240e-02
2.547180e-02
2.673330e-02
2.639230e-02
2.609040e-02
2.582760e-02
2.560390e-02
2.698720e-02
2.660930e-02
2.627340e-02
2.597960e-02
2.572790e-02
2.719960e-02
2.679640e-02
2.643610e-02
2.611860e-02
2.584380e-02
2.737040e-02
2.695380e-02
2.657840e-02
2.624440e-02
2.595170e-02
2.710540e-02
2.722920e-02
2.739010e-02
2.758810e-02
2.782320e-02
2.733260e-02
2.747460e-02
2.764920e-02
2.785640e-02
2.809620e-02
2.754220e-02
2.769990e-02
2.788570e-02
2.809950e-02
2.834150e-02
2.773410e-02
2.790500e-02
2.809950e-02
2.831760e-02
2.855920e-02