<?xml version="1.0"?>
<VTKFile type="UnstructuredGrid" version="0.1" byte_order="LittleEndian" compressor="vtkZLibDataCompressor">
<UnstructuredGrid>
<Piece NumberOfPoints="2500" NumberOfCells="1600">
<Points>
<DataArray type="Float32" NumberOfComponents="3" format="ascii">
-3.630000e+00 0.000000e+00 0.000000e+00
-3.448500e+00 0.000000e+00 0.000000e+00
-3.267000e+00 0.000000e+00 0.000000e+00
-3.085500e+00 0.000000e+00 0.000000e+00
-2.904000e+00 0.000000e+00 0.000000e+00
-3.630000e+00 1.282500e-01 0.000000e+00
-3.448500e+00 1.282500e-01 0.000000e+00
-3.267000e+00 1.282500e-01 0.000000e+00
-3.085500e+00 1.282500e-01 0.000000e+00
-2.904000e+00 1.282500e-01 0.000000e+00
-3.630000e+00 2.565000e-01 0.000000e+00
-3.448500e+00 2.565000e-01 0.000000e+00
-3.267000e+00 2.565000e-01 0.000000e+00
-3.085500e+00 2.565000e-01 0.000000e+00
-2.904000e+00 2.565000e-01 0.000000e+00
-3.630000e+00 3.847500e-01 0.000000e+00
-3.448500e+00 3.847500e-01 0.000000e+00
-3.267000e+00 3.847500e-01 0.000000e+00
-3.085500e+00 3.847500e-01 0.000000e+00
-2.904000e+00 3.847500e-01 0.000000e+00
-3.630000e+00 5.130000e-01 0.000000e+00
-3.448500e+00 5.130000e-01 0.000000e+00
-3.267000e+00 5.130000e-01 0.000000e+00
-3.085500e+00 5.130000e-01 0.000000e+00
-2.904000e+00 5.130000e-01 0.000000e+00
-2.904000e+00 0.000000e+00 0.000000e+00
-2.722500e+00 0.000000e+00 0.000000e+00
-2.541000e+00 0.000000e+00 0.000000e+00
-2.359500e+00 0.000000e+00 0.000000e+00
-2.178000e+00 0.000000e+00 0.000000e+00
-2.904000e+00 1.282500e-01 0.000000e+00
-2.722500e+00 1.282500e-01 0.000000e+00
-2.541000e+00 1.282500e-01 0.000000e+00
-2.359500e+00 1.282500e-01 0.000000e+00
-2.178000e+00 1.282500e-01 0.000000e+00
-2.904000e+00 2.565000e-01 0.000000e+00
-2.722500e+00 2.565000e-01 0.000000e+00
-2.541000e+00 2.565000e-01 0.000000e+00
-2.359500e+00 2.565000e-01 0.000000e+00
-2.178000e+00 2.565000e-01 0.000000e+00
-2.904000e+00 3.847500e-01 0.000000e+00
-2.722500e+00 3.847500e-01 0.000000e+00
-2.541000e+00 3.847500e-01 0.000000e+00
-2.359500e+00 3.847500e-01 0.000000e+00
-2.178000e+00 3.847500e-01 0.000000e+00
-2.904000e+00 5.130000e-01 0.000000e+00
-2.722500e+00 5.130000e-01 0.000000e+00
-2.541000e+00 5.130000e-01 0.000000e+00
-2.359500e+00 5.130000e-01 0.000000e+00
-2.178000e+00 5.130000e-01 0.000000e+00
-2.178000e+00 0.000000e+00 0.000000e+00
-1.996500e+00 0.000000e+00 0.000000e+00
-1.815000e+00 0.000000e+00 0.000000e+00
-1.633500e+00 0.000000e+00 0.000000e+00
-1.452000e+00 0.000000e+00 0.000000e+00
-2.178000e+00 1.282500e-01 0.000000e+00
-1.996500e+00 1.282500e-01 0.000000e+00
-1.815000e+00 1.282500e-01 0.000000e+00
-1.633500e+00 1.282500e-01 0.000000e+00
-1.452000e+00 1.282500e-01 0.000000e+00
-2.178000e+00 2.565000e-01 0.000000e+00
-1.996500e+00 2.565000e-01 0.000000e+00
-1.815000e+00 2.565000e-01 0.000000e+00
-1.633500e+00 2.565000e-01 0.000000e+00
-1.452000e+00 2.565000e-01 0.000000e+00
-2.178000e+00 3.847500e-01 0.000000e+00
-1.996500e+00 3.847500e-01 0.000000e+00
-1.815000e+00 3.847500e-01 0.000000e+00
-1.633500e+00 3.847500e-01 0.000000e+00
-1.452000e+00 3.847500e-01 0.000000e+00
-2.178000e+00 5.130000e-01 0.000000e+00
-1.996500e+00 5.130000e-01 0.000000e+00
-1.815000e+00 5.130000e-01 0.000000e+00
-1.633500e+00 5.130000e-01 0.000000e+00
-1.452000e+00 5.130000e-01 0.000000e+00
-1.452000e+00 0.000000e+00 0.000000e+00
-1.270500e+00 0.000000e+00 0.000000e+00
-1.089000e+00 0.000000e+00 0.000000e+00
-9.075000e-01 0.000000e+00 0.000000e+00
-7.260000e-01 0.000000e+00 0.000000e+00
-1.452000e+00 1.282500e-01 0.000000e+00
-1.270500e+00 1.282500e-01 0.000000e+00
-1.089000e+00 1.282500e-01 0.000000e+00
-9.075000e-01 1.282500e-01 0.000000e+00
-7.260000e-01 1.282500e-01 0.000000e+00
-1.452000e+00 2.565000e-01 0.000000e+00
-1.270500e+00 2.565000e-01 0.000000e+00
-1.089000e+00 2.565000e-01 0.000000e+00
-9.075000e-01 2.565000e-01 0.000000e+00
-7.260000e-01 2.565000e-01 0.000000e+00
-1.452000e+00 3.847500e-01 0.000000e+00
-1.270500e+00 3.847500e-01 0.000000e+00
-1.089000e+00 3.847500e-01 0.000000e+00
-9.075000e-01 3.847500e-01 0.000000e+00
-7.260000e-01 3.847500e-01 0.000000e+00
-1.452000e+00 5.130000e-01 0.000000e+00
-1.270500e+00 5.130000e-01 0.000000e+00
-1.089000e+00 5.130000e-01 0.000000e+00
-9.075000e-01 5.130000e-01 0.000000e+00
-7.260000e-01 5.130000e-01 0.000000e+00
-7.260000e-01 0.000000e+00 0.000000e+00
-5.445000e-01 0.000000e+00 0.000000e+00
-3.630000e-01 0.000000e+00 0.000000e+00
-1.815000e-01 0.000000e+00 0.000000e+00
0.000000e+00 0.000000e+00 0.000000e+00
-7.260000e-01 1.282500e-01 0.000000e+00
-5.445000e-01 1.282500e-01 0.000000e+00
-3.630000e-01 1.282500e-01 0.000000e+00
-1.815000e-01 1.282500e-01 0.000000e+00
0.000000e+00 1.282500e-01 0.000000e+00
-7.260000e-01 2.565000e-01 0.000000e+00
-5.445000e-01 2.565000e-01 0.000000e+00
-3.630000e-01 2.565000e-01 0.000000e+00
-1.815000e-01 2.565000e-01 0.000000e+00
0.000000e+00 2.565000e-01 0.000000e+00
-7.260000e-01 3.847500e-01 0.000000e+00
-5.445000e-01 3.847500e-01 0.000000e+00
-3.630000e-01 3.847500e-01 0.000000e+00
-1.815000e-01 3.847500e-01 0.000000e+00
0.000000e+00 3.847500e-01 0.000000e+00
-7.260000e-01 5.130000e-01 0.000000e+00
-5.445000e-01 5.130000e-01 0.000000e+00
-3.630000e-01 5.130000e-01 0.000000e+00
-1.815000e-01 5.130000e-01 0.000000e+00
0.000000e+00 5.130000e-01 0.000000e+00
0.000000e+00 0.000000e+00 0.000000e+00
1.815000e-01 0.000000e+00 0.000000e+00
3.630000e-01 0.000000e+00 0.000000e+00
5.445000e-01 0.000000e+00 0.000000e+00
7.260000e-01 0.000000e+00 0.000000e+00
0.000000e+00 1.282500e-01 0.000000e+00
1.815000e-01 1.282500e-01 0.000000e+00
3.630000e-01 1.282500e-01 0.000000e+00
5.445000e-01 1.282500e-01 0.000000e+00
7.260000e-01 1.282500e-01 0.000000e+00
0.000000e+00 2.565000e-01 0.000000e+00
1.815000e-01 2.565000e-01 0.000000e+00
3.630000e-01 2.565000e-01 0.000000e+00
5.445000e-01 2.565000e-01 0.000000e+00
7.260000e-01 2.565000e-01 0.000000e+00
0.000000e+00 3.847500e-01 0.000000e+00
1.815000e-01 3.847500e-01 0.000000e+00
3.630000e-01 3.847500e-01 0.000000e+00
5.445000e-01 3.847500e-01 0.000000e+00
7.260000e-01 3.847500e-01 0.000000e+00
0.000000e+00 5.130000e-01 0.000000e+00
1.815000e-01 5.130000e-01 0.000000e+00
3.630000e-01 5.130000e-01 0.000000e+00
5.445000e-01 5.130000e-01 0.000000e+00
7.260000e-01 5.130000e-01 0.000000e+00
7.260000e-01 0.000000e+00 0.000000e+00
9.075000e-01 0.000000e+00 0.000000e+00
1.089000e+00 0.000000e+00 0.000000e+00
1.270500e+00 0.000000e+00 0.000000e+00
1.452000e+00 0.000000e+00 0.000000e+00
7.260000e-01 1.282500e-01 0.000000e+00
9.075000e-01 1.282500e-01 0.000000e+00
1.089000e+00 1.282500e-01 0.000000e+00
1.270500e+00 1.282500e-01 0.000000e+00
1.452000e+00 1.282500e-01 0.000000e+00
7.260000e-01 2.565000e-01 0.000000e+00
9.075000e-01 2.565000e-01 0.000000e+00
1.089000e+00 2.565000e-01 0.000000e+00
1.270500e+00 2.565000e-01 0.000000e+00
1.452000e+00 2.565000e-01 0.000000e+00
7.260000e-01 3.847500e-01 0.000000e+00
9.075000e-01 3.847500e-01 0.000000e+00
1.089000e+00 3.847500e-01 0.000000e+00
1.270500e+00 3.847500e-01 0.000000e+00
1.452000e+00 3.847500e-01 0.000000e+00
7.260000e-01 5.130000e-01 0.000000e+00
9.075000e-01 5.130000e-01 0.000000e+00
1.089000e+00 5.130000e-01 0.000000e+00
1.270500e+00 5.130000e-01 0.000000e+00
1.452000e+00 5.130000e-01 0.000000e+00
1.452000e+00 0.000000e+00 0.000000e+00
1.633500e+00 0.000000e+00 0.000000e+00
1.815000e+00 0.000000e+00 0.000000e+00
1.996500e+00 0.000000e+00 0.000000e+00
2.178000e+00 0.000000e+00 0.000000e+00
1.452000e+00 1.282500e-01 0.000000e+00
1.633500e+00 1.282500e-01 0.000000e+00
1.815000e+00 1.282500e-01 0.000000e+00
1.996500e+00 1.282500e-01 0.000000e+00
2.178000e+00 1.282500e-01 0.000000e+00
1.452000e+00 2.565000e-01 0.000000e+00
1.633500e+00 2.565000e-01 0.000000e+00
1.815000e+00 2.565000e-01 0.000000e+00
1.996500e+00 2.565000e-01 0.000000e+00
2.178000e+00 2.565000e-01 0.000000e+00
1.452000e+00 3.847500e-01 0.000000e+00
1.633500e+00 3.847500e-01 0.000000e+00
1.815000e+00 3.847500e-01 0.000000e+00
1.996500e+00 3.847500e-01 0.000000e+00
2.178000e+00 3.847500e-01 0.000000e+00
1.452000e+00 5.130000e-01 0.000000e+00
1.633500e+00 5.130000e-01 0.000000e+00
1.815000e+00 5.130000e-01 0.000000e+00
1.996500e+00 5.130000e-01 0.000000e+00
2.178000e+00 5.130000e-01 0.000000e+00
2.178000e+00 0.000000e+00 0.000000e+00
2.359500e+00 0.000000e+00 0.000000e+00
2.541000e+00 0.000000e+00 0.000000e+00
2.722500e+00 0.000000e+00 0.000000e+00
2.904000e+00 0.000000e+00 0.000000e+00
2.178000e+00 1.282500e-01 0.000000e+00
2.359500e+00 1.282500e-01 0.000000e+00
2.541000e+00 1.282500e-01 0.000000e+00
2.722500e+00 1.282500e-01 0.000000e+00
2.904000e+00 1.282500e-01 0.000000e+00
2.178000e+00 2.565000e-01 0.000000e+00
2.359500e+00 2.565000e-01 0.000000e+00
2.541000e+00 2.565000e-01 0.000000e+00
2.722500e+00 2.565000e-01 0.000000e+00
2.904000e+00 2.565000e-01 0.000000e+00
2.178000e+00 3.847500e-01 0.000000e+00
2.359500e+00 3.847500e-01 0.000000e+00
2.541000e+00 3.847500e-01 0.000000e+00
2.722500e+00 3.847500e-01 0.000000e+00
2.904000e+00 3.847500e-01 0.000000e+00
2.178000e+00 5.130000e-01 0.000000e+00
2.359500e+00 5.130000e-01 0.000000e+00
2.541000e+00 5.130000e-01 0.000000e+00
2.722500e+00 5.130000e-01 0.000000e+00
2.904000e+00 5.130000e-01 0.000000e+00
2.904000e+00 0.000000e+00 0.000000e+00
3.085500e+00 0.000000e+00 0.000000e+00
3.267000e+00 0.000000e+00 0.000000e+00
3.448500e+00 0.000000e+00 0.000000e+00
3.630000e+00 0.000000e+00 0.000000e+00
2.904000e+00 1.282500e-01 0.000000e+00
3.085500e+00 1.282500e-01 0.000000e+00
3.267000e+00 1.282500e-01 0.000000e+00
3.448500e+00 1.282500e-01 0.000000e+00
3.630000e+00 1.282500e-01 0.000000e+00
2.904000e+00 2.565000e-01 0.000000e+00
3.085500e+00 2.565000e-01 0.000000e+00
3.267000e+00 2.565000e-01 0.000000e+00
3.448500e+00 2.565000e-01 0.000000e+00
3.630000e+00 2.565000e-01 0.000000e+00
2.904000e+00 3.847500e-01 0.000000e+00
3.085500e+00 3.847500e-01 0.000000e+00
3.267000e+00 3.847500e-01 0.000000e+00
3.448500e+00 3.847500e-01 0.000000e+00
3.630000e+00 3.847500e-01 0.000000e+00
2.904000e+00 5.130000e-01 0.000000e+00
[...]
<PointData>
<DataArray type="Float32" Name="V1" format="ascii">
0.000000e+00
0.000000e+00
0.000000e+00
0.000000e+00
0.000000e+00
1.264110e-02
1.103470e-02
9.648780e-03
8.483250e-03
7.538140e-03
2.028400e-02
1.822820e-02
1.639100e-02
1.477240e-02
1.337260e-02
2.292870e-02
2.158020e-02
2.022650e-02
1.886760e-02
1.750340e-02
2.057510e-02
2.109090e-02
2.115550e-02
2.076870e-02
1.993060e-02
0.000000e+00
0.000000e+00
0.000000e+00
0.000000e+00
0.000000e+00
7.538140e-03
6.473240e-03
5.638410e-03
5.033660e-03
4.658990e-03
1.337260e-02
1.178710e-02
1.050770e-02
9.534420e-03
8.867280e-03
1.750340e-02
1.594160e-02
1.460790e-02
1.350230e-02
1.262490e-02
1.993060e-02
1.893670e-02
1.793890e-02
1.693730e-02
1.593170e-02
0.000000e+00
0.000000e+00
0.000000e+00
0.000000e+00
0.000000e+00
4.658990e-03
4.379280e-03
4.163330e-03
4.011140e-03
3.922720e-03
8.867280e-03
8.344760e-03
7.934110e-03
7.635330e-03
7.448420e-03
1.262490e-02
1.189640e-02
1.131230e-02
1.087260e-02
1.057710e-02
1.593170e-02
1.503430e-02
1.429800e-02
1.372280e-02
1.330870e-02
0.000000e+00
0.000000e+00
0.000000e+00
0.000000e+00
0.000000e+00
3.922720e-03
3.757520e-03
3.843880e-03
4.181820e-03
4.771330e-03
7.448420e-03
7.092660e-03
7.149130e-03
7.617820e-03
8.498730e-03
1.057710e-02
1.000540e-02
9.915750e-03
1.030800e-02
1.118220e-02
1.330870e-02
1.249580e-02
1.214370e-02
1.225240e-02
1.282170e-02
0.000000e+00
0.000000e+00
0.000000e+00
0.000000e+00
0.000000e+00
4.771330e-03
4.599520e-03
4.123080e-03
3.342000e-03
2.256290e-03
8.498730e-03
7.980830e-03
6.915050e-03
5.301380e-03
3.139830e-03
1.118220e-02
1.014390e-02
8.375910e-03
5.878140e-03
2.650610e-03
1.282170e-02
1.108880e-02
8.505680e-03
5.072280e-03
7.886260e-04
0.000000e+00
0.000000e+00
0.000000e+00
0.000000e+00
0.000000e+00
2.256290e-03
1.008260e-03
-1.320330e-03
-4.729450e-03
-9.219130e-03
3.139830e-03
5.742200e-04
-3.533930e-03
-9.184630e-03
-1.637790e-02
2.650610e-03
-1.302110e-03
-6.640820e-03
-1.336550e-02
-2.147620e-02
7.886260e-04
-4.620730e-03
-1.064100e-02
-1.727210e-02
-2.451420e-02
0.000000e+00
0.000000e+00
0.000000e+00
0.000000e+00
0.000000e+00
-9.219130e-03
-1.008000e-02
-1.037950e-02
-1.011780e-02
-9.294730e-03
-1.637790e-02
-1.727680e-02
-1.738850e-02
-1.671300e-02
-1.525030e-02
-2.147620e-02
-2.159040e-02
-2.102680e-02
-1.978560e-02
-1.786670e-02
-2.451420e-02
-2.302070e-02
-2.129460e-02
-1.933560e-02
-1.714390e-02
0.000000e+00
0.000000e+00
0.000000e+00
0.000000e+00
0.000000e+00
-9.294730e-03
-9.067680e-03
-7.968700e-03
-5.997780e-03
-3.154930e-03
-1.525030e-02
-1.471750e-02
-1.279820e-02
-9.492190e-03
-4.799570e-03
-1.786670e-02
-1.694960e-02
-1.448840e-02
-1.048320e-02
-4.933910e-03
-1.714390e-02
-1.576390e-02
-1.303950e-02
-8.970870e-03
-3.557960e-03
0.000000e+00
0.000000e+00
0.000000e+00
0.000000e+00
0.000000e+00
-3.154930e-03
-1.138500e-03
6.447610e-04
2.194850e-03
3.511770e-03
-4.799570e-03
-1.386970e-03
1.613560e-03
4.202000e-03
6.378350e-03
-4.933910e-03
-7.453910e-04
2.906390e-03
6.021430e-03
8.599720e-03
-3.557960e-03
7.862220e-04
4.523260e-03
7.653150e-03
1.017590e-02
0.000000e+00
0.000000e+00
0.000000e+00
0.000000e+00
0.000000e+00
3.511770e-03
4.869080e-03
6.044680e-03
7.038560e-03
7.850730e-03
6.378350e-03
8.651100e-03
1.061030e-02
1.225590e-02
1.358800e-02
8.599720e-03
1.134610e-02
1.369690e-02
1.565210e-02
1.721190e-02
1.017590e-02
1.295400e-02
1.530440e-02
1.722720e-02
1.872230e-02
2.057510e-02
2.109090e-02
2.115550e-02
2.076870e-02
1.993060e-02
2.078850e-02
2.098070e-02
2.100490e-02
2.086130e-02
2.054980e-02
2.103660e-02
2.097140e-02
2.092570e-02
2.089960e-02
2.089300e-02
2.131930e-02
2.106310e-02
2.091780e-02
2.088350e-02
2.096000e-02
2.163650e-02
2.125580e-02
2.098130e-02
2.081300e-02
2.075100e-02
1.993060e-02
1.893670e-02
1.793890e-02
1.693730e-02
1.593170e-02
2.054980e-02
2.006160e-02
1.949220e-02
1.884170e-02
1.811000e-02
2.089300e-02
2.076940e-02
2.052600e-02
2.016290e-02
1.968000e-02
2.096000e-02
2.105990e-02
2.104020e-02
2.090080e-02
2.064170e-02
2.075100e-02
2.093340e-02
2.103480e-02
2.105540e-02
2.099510e-02
1.593170e-02
1.503430e-02
1.429800e-02
1.372280e-02
1.330870e-02
1.811000e-02
1.729200e-02
1.658820e-02
1.599870e-02
1.552340e-02
1.968000e-02
1.896840e-02
1.833690e-02
1.778540e-02
1.731390e-02
2.064170e-02
2.006370e-02
1.954410e-02
1.908290e-02
1.868010e-02
2.099510e-02
2.057780e-02
2.020980e-02
1.989120e-02
1.962210e-02
1.330870e-02
1.249580e-02
1.214370e-02
1.225240e-02
1.282170e-02
1.552340e-02
1.437140e-02
1.376950e-02
1.371760e-02
1.421590e-02
1.731390e-02
1.588630e-02
1.510160e-02
1.495970e-02
1.546080e-02
1.868010e-02
1.704060e-02
1.614010e-02
1.597870e-02
1.655640e-02
1.962210e-02
1.783420e-02
1.688500e-02
1.677450e-02
1.750270e-02
1.282170e-02
1.108880e-02
8.505680e-03
5.072280e-03
7.886260e-04
1.421590e-02
1.179030e-02
8.580980e-03
4.587950e-03
-1.887880e-04
1.546080e-02
1.254610e-02
8.951990e-03
4.678480e-03
-2.744340e-04
1.655640e-02
1.335620e-02
9.618720e-03
5.343870e-03
5.316870e-04
1.750270e-02
1.422070e-02
1.058120e-02
6.584120e-03
2.229580e-03
7.886260e-04
-4.620730e-03
-1.064100e-02
-1.727210e-02
-2.451420e-02
-1.887880e-04
-5.383230e-03
-1.116280e-02
-1.752740e-02
-2.447720e-02
-2.744340e-04
-4.619660e-03
-9.785840e-03
-1.577300e-02
-2.258110e-02
5.316870e-04
-2.330020e-03
-6.510170e-03
-1.200880e-02
-1.882580e-02
2.229580e-03
1.485680e-03
-1.335760e-03
-6.234750e-03
-1.321130e-02
-2.451420e-02
-2.302070e-02
-2.129460e-02
-1.933560e-02
-1.714390e-02
-2.447720e-02
-2.256400e-02
-2.054930e-02
-1.843320e-02
-1.621570e-02
-2.258110e-02
-2.062480e-02
-1.850730e-02
-1.622880e-02
-1.378910e-02
-1.882580e-02
-1.720310e-02
-1.516860e-02
-1.272230e-02
-9.864260e-03
-1.321130e-02
-1.229890e-02
-1.053310e-02
-7.913820e-03
-4.441090e-03
-1.714390e-02
-1.576390e-02
-1.303950e-02
-8.970870e-03
-3.557960e-03
-1.621570e-02
-1.551550e-02
-1.311040e-02
-9.000390e-03
-3.185440e-03
-1.378910e-02
-1.370860e-02
-1.173700e-02
-7.874220e-03
-2.120330e-03
-9.864260e-03
-1.034320e-02
-8.919230e-03
-5.592380e-03
-3.626380e-04
-4.441090e-03
-5.419220e-03
-4.657150e-03
-2.154860e-03
2.087640e-03
-3.557960e-03
7.862220e-04
4.523260e-03
7.653150e-03
1.017590e-02
-3.185440e-03
1.572930e-03
5.569140e-03
8.803190e-03
1.127510e-02
-2.120330e-03
2.822390e-03
6.892600e-03
1.009030e-02
1.241550e-02
-3.626380e-04
4.534610e-03
8.493640e-03
1.151440e-02
1.359700e-02
2.087640e-03
6.709600e-03
1.037230e-02
1.307560e-02
1.481970e-02
1.017590e-02
1.295400e-02
1.530440e-02
1.722720e-02
1.872230e-02
1.127510e-02
1.391470e-02
1.618770e-02
1.809410e-02
1.963390e-02
1.241550e-02
1.484750e-02
1.697440e-02
1.879630e-02
2.031300e-02
1.359700e-02
1.575230e-02
1.766450e-02
1.933360e-02
2.075970e-02
1.481970e-02
1.662900e-02
1.825780e-02
1.970610e-02
2.097380e-02
2.163650e-02
2.125580e-02
2.098130e-02
2.081300e-02
2.075100e-02
2.197900e-02
2.160140e-02
2.131300e-02
2.111380e-02
2.100370e-02
2.233590e-02
2.198490e-02
2.170360e-02
2.149220e-02
2.135060e-02
2.270730e-02
2.240620e-02
2.215320e-02
2.194840e-02
2.179180e-02
2.309330e-02
2.286540e-02
2.266170e-02
2.248230e-02
2.232710e-02
2.075100e-02
2.093340e-02
2.103480e-02
2.105540e-02
2.099510e-02
2.100370e-02
2.109840e-02
2.116510e-02
2.120380e-02
2.121460e-02
2.135060e-02
2.136640e-02
2.139260e-02
2.142930e-02
2.147640e-02
2.179180e-02
2.173740e-02
2.171740e-02
2.173170e-02
2.178040e-02
2.232710e-02
2.221140e-02
2.213940e-02
2.211110e-02
2.212660e-02
2.099510e-02
2.057780e-02
2.020980e-02
1.989120e-02
1.962210e-02
2.121460e-02
2.086020e-02
2.058410e-02
2.038620e-02
2.026670e-02
2.147640e-02
2.115940e-02
2.094660e-02
2.083810e-02
2.083390e-02
2.178040e-02
2.147530e-02
2.129750e-02
2.124690e-02
2.132370e-02
2.212660e-02
2.180790e-02
2.163660e-02
2.161260e-02
2.173600e-02
1.962210e-02
1.783420e-02
1.688500e-02
1.677450e-02
1.750270e-02
2.026670e-02
1.846700e-02
1.755230e-02
1.752250e-02
1.837760e-02
2.083390e-02
1.909390e-02
1.824400e-02
1.828430e-02
1.921470e-02
2.132370e-02
1.971470e-02
1.896010e-02
1.905990e-02
2.001410e-02
2.173600e-02
2.032940e-02
1.970050e-02
1.984930e-02
2.077570e-02
1.750270e-02
1.422070e-02
1.058120e-02
6.584120e-03
2.229580e-03
1.837760e-02
1.544170e-02
1.220060e-02
8.654040e-03
4.802190e-03
1.921470e-02
1.681670e-02
1.408960e-02
1.103330e-02
7.647940e-03
2.001410e-02
1.834560e-02
1.624820e-02
1.372200e-02
1.076680e-02
2.077570e-02
2.002840e-02
1.867650e-02
1.672000e-02
1.415880e-02
2.229580e-03
1.485680e-03
-1.335760e-03
-6.234750e-03
-1.321130e-02
4.802190e-03
6.393520e-03
5.250330e-03
1.372640e-03
-5.239560e-03
7.647940e-03
1.114540e-02
1.155010e-02
8.862020e-03
3.081130e-03
1.076680e-02
1.574140e-02
1.756360e-02
1.623340e-02
1.175080e-02
1.415880e-02
2.018140e-02
2.329070e-02
2.348670e-02
2.076940e-02
-1.321130e-02
-1.229890e-02
-1.053310e-02
-7.913820e-03
-4.441090e-03
-5.239560e-03
-5.713780e-03
-4.736740e-03
-2.308430e-03
1.571140e-03
3.081130e-03
1.660450e-03
2.053220e-03
4.259430e-03
8.279080e-03
1.175080e-02
9.823780e-03
9.836770e-03
1.178970e-02
1.568270e-02
2.076940e-02
1.877620e-02
1.861390e-02
2.028250e-02
2.378210e-02
-4.441090e-03
-5.419220e-03
-4.657150e-03
-2.154860e-03
2.087640e-03
1.571140e-03
4.141590e-04
6.599100e-04
2.308400e-03
5.359620e-03
8.279080e-03
6.860440e-03
6.528040e-03
7.281880e-03
9.121980e-03
1.568270e-02
1.391960e-02
1.294720e-02
1.276560e-02
1.337470e-02
2.378210e-02
2.159170e-02
1.991750e-02
1.875950e-02
1.811780e-02
2.087640e-03
6.709600e-03
1.037230e-02
1.307560e-02
1.481970e-02
5.359620e-03
9.442630e-03
1.261120e-02
1.486520e-02
1.620470e-02
9.121980e-03
1.250860e-02
1.505460e-02
1.675980e-02
1.762440e-02
1.337470e-02
1.590760e-02
1.770250e-02
1.875950e-02
1.907860e-02
1.811780e-02
1.963950e-02
2.055500e-02
2.086430e-02
2.056750e-02
1.481970e-02
1.662900e-02
1.825780e-02
1.970610e-02
2.097380e-02
1.620470e-02
1.778790e-02
1.917560e-02
2.036780e-02
2.136460e-02
1.762440e-02
1.896880e-02
2.011230e-02
2.105480e-02
2.179630e-02
1.907860e-02
2.017170e-02
2.106780e-02
2.176690e-02
2.226890e-02
2.056750e-02
2.139670e-02
2.204220e-02
2.250410e-02
2.278240e-02
2.309330e-02
2.286540e-02
2.266170e-02
2.248230e-02
2.232710e-02
2.348320e-02
2.330140e-02
2.313680e-02
2.298940e-02
2.285920e-02
2.386930e-02
2.373040e-02
2.360200e-02
2.348420e-02
2.337700e-02
2.425160e-02
2.415230e-02
2.405730e-02
2.396670e-02
2.388040e-02
2.463000e-02
2.456710e-02
2.450270e-02
2.443690e-02
2.436960e-02
2.232710e-02
2.221140e-02
2.213940e-02
2.211110e-02
2.212660e-02
2.285920e-02
2.273260e-02
2.264350e-02
2.259190e-02
2.257800e-02
2.337700e-02
2.324870e-02
2.315180e-02
2.308630e-02
2.305220e-02
2.388040e-02
2.375980e-02
2.366430e-02
2.359410e-02
2.354920e-02
2.436960e-02
2.426580e-02
2.418110e-02
2.411550e-02
2.406910e-02
2.212660e-02
2.180790e-02
2.163660e-02
2.161260e-02
2.173600e-02
2.257800e-02
2.227690e-02
2.210780e-02
2.207070e-02
2.216550e-02
2.305220e-02
2.277700e-02
2.261780e-02
2.257450e-02
2.264710e-02
2.354920e-02
2.330820e-02
2.316640e-02
2.312390e-02
2.318060e-02
2.406910e-02
2.387050e-02
2.375380e-02
2.371910e-02
2.376620e-02
2.173600e-02
2.032940e-02
1.970050e-02
1.984930e-02
2.077570e-02
2.216550e-02
2.108260e-02
2.059420e-02
2.070040e-02
2.140110e-02
2.264710e-02
2.185520e-02
2.150520e-02
2.159700e-02
2.213080e-02
2.318060e-02
2.264720e-02
2.243340e-02
2.253930e-02
2.296490e-02
2.376620e-02
2.345870e-02
2.337900e-02
2.352720e-02
2.390330e-02
2.077570e-02
2.002840e-02
1.867650e-02
1.672000e-02
1.415880e-02
2.140110e-02
2.153160e-02
2.103070e-02
1.989850e-02
1.813490e-02
2.213080e-02
2.282760e-02
2.300680e-02
2.266820e-02
2.181200e-02
2.296490e-02
2.391660e-02
2.460470e-02
2.502920e-02
2.519010e-02
2.390330e-02
2.479850e-02
2.582450e-02
2.698140e-02
2.826920e-02
1.415880e-02
2.018140e-02
2.329070e-02
2.348670e-02
2.076940e-02
1.813490e-02
2.394790e-02
2.761850e-02
2.914670e-02
2.853240e-02
2.181200e-02
2.737390e-02
3.140330e-02
3.390010e-02
3.486430e-02
2.519010e-02
3.045930e-02
3.464490e-02
3.774690e-02
3.976520e-02
2.826920e-02
3.320420e-02
3.734350e-02
4.068720e-02
4.323510e-02
2.076940e-02
1.877620e-02
1.861390e-02
2.028250e-02
2.378210e-02
2.853240e-02
2.724740e-02
2.717950e-02
2.832880e-02
3.069530e-02
3.486430e-02
3.427510e-02
3.438180e-02
3.518430e-02
3.668260e-02
3.976520e-02
3.985950e-02
4.022070e-02
4.084900e-02
4.174430e-02
4.323510e-02
4.400040e-02
4.469630e-02
4.532290e-02
4.588010e-02
2.378210e-02
2.159170e-02
1.991750e-02
1.875950e-02
1.811780e-02
3.069530e-02
2.810470e-02
2.589040e-02
2.405240e-02
2.259070e-02
3.668260e-02
3.379660e-02
3.114760e-02
2.873540e-02
2.656020e-02
4.174430e-02
3.866750e-02
3.568890e-02
3.280850e-02
3.002610e-02
4.588010e-02
4.271730e-02
3.951450e-02
3.627160e-02
3.298860e-02
1.811780e-02
1.963950e-02
2.055500e-02
2.086430e-02
2.056750e-02
2.259070e-02
2.312610e-02
2.321650e-02
2.286190e-02
2.206250e-02
2.656020e-02
2.622820e-02
2.560780e-02
2.469890e-02
2.350160e-02
3.002610e-02
2.894590e-02
2.772890e-02
2.637530e-02
2.488490e-02
3.298860e-02
3.127910e-02
2.957990e-02
2.789100e-02
2.621240e-02
2.056750e-02
2.139670e-02
2.204220e-02
2.250410e-02
2.278240e-02
2.206250e-02
2.264240e-02
2.305830e-02
2.331020e-02
2.339790e-02
2.350160e-02
2.383250e-02
2.402150e-02
2.406850e-02
2.397370e-02
2.488490e-02
2.496690e-02
2.493170e-02
2.477930e-02
2.450970e-02
2.621240e-02
2.604560e-02
2.578890e-02
2.544240e-02
2.500600e-02
2.463000e-02
2.456710e-02
2.450270e-02
2.443690e-02
2.436960e-02
2.499690e-02
2.496520e-02
2.492980e-02
2.489060e-02
2.484760e-02
2.534870e-02
2.534630e-02
2.533860e-02
2.532560e-02
2.530730e-02
2.568540e-02
2.571030e-02
2.572910e-02
2.574180e-02
2.574840e-02
2.600690e-02
2.605710e-02
2.610120e-02
2.613920e-02
2.617110e-02
2.436960e-02
2.426580e-02
2.418110e-02
2.411550e-02
2.406910e-02
2.484760e-02
2.475270e-02
2.467980e-02
2.462900e-02
2.460020e-02
2.530730e-02
2.522240e-02
2.516270e-02
2.512800e-02
2.511840e-02
2.574840e-02
2.567500e-02
2.562970e-02
2.561250e-02
2.562340e-02
2.617110e-02
2.611040e-02
2.608090e-02
2.608260e-02
2.611550e-02
2.406910e-02
2.387050e-02
2.375380e-02
2.371910e-02
2.376620e-02
2.460020e-02
2.442670e-02
2.433810e-02
2.433460e-02
2.441620e-02
2.511840e-02
2.497140e-02
2.491050e-02
2.493560e-02
2.504680e-02
2.562340e-02
2.550480e-02
2.547100e-02
2.552210e-02
2.565800e-02
2.611550e-02
2.602670e-02
2.601950e-02
2.609390e-02
2.624990e-02
2.376620e-02
2.345870e-02
2.337900e-02
2.352720e-02
2.390330e-02
2.441620e-02
2.420740e-02
2.422490e-02
2.446870e-02
2.493880e-02
2.504680e-02
2.492410e-02
2.501940e-02
2.533260e-02
2.586370e-02
2.565800e-02
2.560890e-02
2.576250e-02
2.611890e-02
2.667790e-02
2.624990e-02
2.626170e-02
2.645420e-02
2.682750e-02
2.738160e-02
2.390330e-02
2.479850e-02
2.582450e-02
2.698140e-02
2.826920e-02
2.493880e-02
2.570510e-02
2.680580e-02
2.824070e-02
3.001000e-02
2.586370e-02
2.657180e-02
2.769720e-02
2.923990e-02
3.119970e-02
2.667790e-02
2.739860e-02
2.849890e-02
2.997880e-02
3.183830e-02
2.738160e-02
2.818550e-02
2.921080e-02
3.045760e-02
3.192570e-02
2.826920e-02
3.320420e-02
3.734350e-02
4.068720e-02
4.323510e-02
3.001000e-02
3.506070e-02
3.941220e-02
4.306430e-02
4.601700e-02
3.119970e-02
3.606240e-02
4.036790e-02
4.411630e-02
4.730760e-02
3.183830e-02
3.620910e-02
4.021090e-02
4.384340e-02
4.710680e-02
3.192570e-02
3.550100e-02
3.894090e-02
4.224550e-02
4.541460e-02
4.323510e-02
4.400040e-02
4.469630e-02
4.532290e-02
4.588010e-02
4.601700e-02
4.726920e-02
4.818170e-02
4.875440e-02
4.898740e-02
4.730760e-02
4.891130e-02
4.996450e-02
5.046730e-02
5.041960e-02
4.710680e-02
4.892660e-02
5.004480e-02
5.046150e-02
5.017660e-02
4.541460e-02
4.731510e-02
4.842250e-02
4.873700e-02
4.825850e-02
4.588010e-02
4.271730e-02
3.951450e-02
3.627160e-02
3.298860e-02
4.898740e-02
4.548060e-02
4.196710e-02
3.844700e-02
3.492020e-02
5.041960e-02
4.684860e-02
4.330150e-02
3.977840e-02
3.627920e-02
5.017660e-02
4.682140e-02
4.351780e-02
4.026590e-02
3.706560e-02
4.825850e-02
4.539900e-02
4.261600e-02
3.990950e-02
3.727940e-02
3.298860e-02
3.127910e-02
2.957990e-02
2.789100e-02
2.621240e-02
3.492020e-02
3.285040e-02
3.091330e-02
2.910870e-02
2.743670e-02
3.627920e-02
3.400540e-02
3.194710e-02
3.010410e-02
2.847650e-02
3.706560e-02
3.474410e-02
3.268120e-02
3.087710e-02
2.933180e-02
3.727940e-02
3.506630e-02
3.311580e-02
3.142790e-02
3.000250e-02
2.621240e-02
2.604560e-02
2.578890e-02
2.544240e-02
2.500600e-02
2.743670e-02
2.695990e-02
2.648250e-02
2.600460e-02
2.552620e-02
2.847650e-02
2.775300e-02
2.710300e-02
2.652630e-02
2.602290e-02
2.933180e-02
2.842510e-02
2.765020e-02
2.700720e-02
2.649610e-02
3.000250e-02
2.897590e-02
2.812430e-02
2.744750e-02
2.694560e-02
2.600690e-02
2.605710e-02
2.610120e-02
2.613920e-02
2.617110e-02
2.630990e-02
2.638130e-02
2.644690e-02
2.650660e-02
2.656060e-02
2.659390e-02
2.668560e-02
2.677110e-02
2.685040e-02
2.692360e-02
2.685910e-02
2.696990e-02
2.707360e-02
2.717050e-02
2.726040e-02
2.710540e-02
2.723420e-02
2.735470e-02
2.746680e-02
2.757070e-02
2.617110e-02
2.611040e-02
2.608090e-02
2.608260e-02
2.611550e-02
2.656060e-02
2.652270e-02
2.651260e-02
2.653030e-02
2.657590e-02
2.692360e-02
2.690830e-02
2.691720e-02
2.695030e-02
2.700770e-02
2.726040e-02
2.726730e-02
2.729470e-02
2.734260e-02
2.741100e-02
2.757070e-02
2.759960e-02
2.764510e-02
2.770710e-02
2.778580e-02
2.611550e-02
2.602670e-02
2.601950e-02
2.609390e-02
2.624990e-02
2.657590e-02
2.652330e-02
2.654200e-02
2.663180e-02
2.679280e-02
2.700770e-02
2.698750e-02
2.702910e-02
2.713250e-02
2.729760e-02
2.741100e-02
2.741940e-02
2.748110e-02
2.759600e-02
2.776430e-02
2.778580e-02
2.781890e-02
2.789780e-02
2.802250e-02
2.819300e-02
2.624990e-02
2.626170e-02
2.645420e-02
2.682750e-02
2.738160e-02
2.679280e-02
2.687020e-02
2.709780e-02
2.747540e-02
2.800310e-02
2.729760e-02
2.742690e-02
2.768020e-02
2.805740e-02
2.855850e-02
2.776430e-02
2.793170e-02
2.820140e-02
2.857340e-02
2.904780e-02
2.819300e-02
2.838450e-02
2.866140e-02
2.902360e-02
2.947120e-02
2.738160e-02
2.818550e-02
2.921080e-02
3.045760e-02
3.192570e-02
2.800310e-02
2.882380e-02
2.979920e-02
3.092930e-02
3.221390e-02
2.855850e-02
2.937400e-02
3.029540e-02
3.132260e-02
3.245580e-02
2.904780e-02
2.983590e-02
3.069920e-02
3.163770e-02
3.265140e-02
2.947120e-02
3.020970e-02
3.101080e-02
3.187450e-02
3.280060e-02
3.192570e-02
3.550100e-02
3.894090e-02
4.224550e-02
4.541460e-02
3.221390e-02
3.503030e-02
3.777790e-02
4.045670e-02
4.306660e-02
3.245580e-02
3.466050e-02
3.683220e-02
3.897100e-02
4.107680e-02
3.265140e-02
3.439140e-02
3.610370e-02
3.778840e-02
3.944530e-02
3.280060e-02
3.422310e-02
3.559260e-02
3.690890e-02
3.817210e-02
4.541460e-02
4.731510e-02
4.842250e-02
4.873700e-02
4.825850e-02
4.306660e-02
4.476750e-02
4.580730e-02
4.618610e-02
4.590390e-02
4.107680e-02
4.255840e-02
4.350650e-02
4.392100e-02
4.380200e-02
3.944530e-02
4.068800e-02
4.152010e-02
4.194180e-02
4.195290e-02
3.817210e-02
3.915610e-02
3.984820e-02
4.024830e-02
4.035650e-02
4.825850e-02
4.539900e-02
4.261600e-02
3.990950e-02
3.727940e-02
4.590390e-02
4.369500e-02
4.150240e-02
3.932600e-02
3.716590e-02
4.380200e-02
4.214670e-02
4.045430e-02
3.872500e-02
3.695880e-02
4.195290e-02
4.075390e-02
3.947170e-02
3.810640e-02
3.665800e-02
4.035650e-02
3.951670e-02
3.855460e-02
3.747020e-02
3.626370e-02
3.727940e-02
3.506630e-02
3.311580e-02
3.142790e-02
3.000250e-02
3.716590e-02
3.517350e-02
3.339880e-02
3.184160e-02
3.050210e-02
3.695880e-02
3.517340e-02
3.356750e-02
3.214110e-02
3.089410e-02
3.665800e-02
3.506590e-02
3.362190e-02
3.232610e-02
3.117850e-02
3.626370e-02
3.485100e-02
3.356200e-02
3.239670e-02
3.135520e-02
3.000250e-02
2.897590e-02
2.812430e-02
2.744750e-02
2.694560e-02
3.050210e-02
2.945680e-02
2.858600e-02
2.788960e-02
2.736770e-02
3.089410e-02
2.984990e-02
2.897620e-02
2.827300e-02
2.774030e-02
3.117850e-02
3.015520e-02
2.929490e-02
2.859760e-02
2.806340e-02
3.135520e-02
3.037260e-02
2.954210e-02
2.886350e-02
2.833690e-02
2.710540e-02
2.723420e-02
2.735470e-02
2.746680e-02
2.757070e-02
2.733260e-02
2.747440e-02
2.760780e-02
2.773300e-02
2.784980e-02
2.754220e-02
2.769530e-02
2.783990e-02
2.797580e-02
2.810330e-02
2.773410e-02
2.789690e-02
2.805070e-02
2.819540e-02
2.833110e-02
2.790840e-02