<?xml version="1.0"?>
<VTKFile type="UnstructuredGrid" version="0.1" byte_order="LittleEndian" compressor="vtkZLibDataCompressor">
<UnstructuredGrid>
<Piece NumberOfPoints="2500" NumberOfCells="1600">
<Points>
<DataArray type="Float32" NumberOfComponents="3" format="ascii">
-3.630000e+00 0.000000e+00 0.000000e+00
-3.448500e+00 0.000000e+00 0.000000e+00
-3.267000e+00 0.000000e+00 0.000000e+00
-3.085500e+00 0.000000e+00 0.000000e+00
-2.904000e+00 0.000000e+00 0.000000e+00
-3.630000e+00 1.282500e-01 0.000000e+00
-3.448500e+00 1.282500e-01 0.000000e+00
-3.267000e+00 1.282500e-01 0.000000e+00
-3.085500e+00 1.282500e-01 0.000000e+00
-2.904000e+00 1.282500e-01 0.000000e+00
-3.630000e+00 2.565000e-01 0.000000e+00
-3.448500e+00 2.565000e-01 0.000000e+00
-3.267000e+00 2.565000e-01 0.000000e+00
-3.085500e+00 2.565000e-01 0.000000e+00
-2.904000e+00 2.565000e-01 0.000000e+00
-3.630000e+00 3.847500e-01 0.000000e+00
-3.448500e+00 3.847500e-01 0.000000e+00
-3.267000e+00 3.847500e-01 0.000000e+00
-3.085500e+00 3.847500e-01 0.000000e+00
-2.904000e+00 3.847500e-01 0.000000e+00
-3.630000e+00 5.130000e-01 0.000000e+00
-3.448500e+00 5.130000e-01 0.000000e+00
-3.267000e+00 5.130000e-01 0.000000e+00
-3.085500e+00 5.130000e-01 0.000000e+00
-2.904000e+00 5.130000e-01 0.000000e+00
-2.904000e+00 0.000000e+00 0.000000e+00
-2.722500e+00 0.000000e+00 0.000000e+00
-2.541000e+00 0.000000e+00 0.000000e+00
-2.359500e+00 0.000000e+00 0.000000e+00
-2.178000e+00 0.000000e+00 0.000000e+00
-2.904000e+00 1.282500e-01 0.000000e+00
-2.722500e+00 1.282500e-01 0.000000e+00
-2.541000e+00 1.282500e-01 0.000000e+00
-2.359500e+00 1.282500e-01 0.000000e+00
-2.178000e+00 1.282500e-01 0.000000e+00
-2.904000e+00 2.565000e-01 0.000000e+00
-2.722500e+00 2.565000e-01 0.000000e+00
-2.541000e+00 2.565000e-01 0.000000e+00
-2.359500e+00 2.565000e-01 0.000000e+00
-2.178000e+00 2.565000e-01 0.000000e+00
-2.904000e+00 3.847500e-01 0.000000e+00
-2.722500e+00 3.847500e-01 0.000000e+00
-2.541000e+00 3.847500e-01 0.000000e+00
-2.359500e+00 3.847500e-01 0.000000e+00
-2.178000e+00 3.847500e-01 0.000000e+00
-2.904000e+00 5.130000e-01 0.000000e+00
-2.722500e+00 5.130000e-01 0.000000e+00
-2.541000e+00 5.130000e-01 0.000000e+00
-2.359500e+00 5.130000e-01 0.000000e+00
-2.178000e+00 5.130000e-01 0.000000e+00
-2.178000e+00 0.000000e+00 0.000000e+00
-1.996500e+00 0.000000e+00 0.000000e+00
-1.815000e+00 0.000000e+00 0.000000e+00
-1.633500e+00 0.000000e+00 0.000000e+00
-1.452000e+00 0.000000e+00 0.000000e+00
-2.178000e+00 1.282500e-01 0.000000e+00
-1.996500e+00 1.282500e-01 0.000000e+00
-1.815000e+00 1.282500e-01 0.000000e+00
-1.633500e+00 1.282500e-01 0.000000e+00
-1.452000e+00 1.282500e-01 0.000000e+00
-2.178000e+00 2.565000e-01 0.000000e+00
-1.996500e+00 2.565000e-01 0.000000e+00
-1.815000e+00 2.565000e-01 0.000000e+00
-1.633500e+00 2.565000e-01 0.000000e+00
-1.452000e+00 2.565000e-01 0.000000e+00
-2.178000e+00 3.847500e-01 0.000000e+00
-1.996500e+00 3.847500e-01 0.000000e+00
-1.815000e+00 3.847500e-01 0.000000e+00
-1.633500e+00 3.847500e-01 0.000000e+00
-1.452000e+00 3.847500e-01 0.000000e+00
-2.178000e+00 5.130000e-01 0.000000e+00
-1.996500e+00 5.130000e-01 0.000000e+00
-1.815000e+00 5.130000e-01 0.000000e+00
-1.633500e+00 5.130000e-01 0.000000e+00
-1.452000e+00 5.130000e-01 0.000000e+00
-1.452000e+00 0.000000e+00 0.000000e+00
-1.270500e+00 0.000000e+00 0.000000e+00
-1.089000e+00 0.000000e+00 0.000000e+00
-9.075000e-01 0.000000e+00 0.000000e+00
-7.260000e-01 0.000000e+00 0.000000e+00
-1.452000e+00 1.282500e-01 0.000000e+00
-1.270500e+00 1.282500e-01 0.000000e+00
-1.089000e+00 1.282500e-01 0.000000e+00
-9.075000e-01 1.282500e-01 0.000000e+00
-7.260000e-01 1.282500e-01 0.000000e+00
-1.452000e+00 2.565000e-01 0.000000e+00
-1.270500e+00 2.565000e-01 0.000000e+00
-1.089000e+00 2.565000e-01 0.000000e+00
-9.075000e-01 2.565000e-01 0.000000e+00
-7.260000e-01 2.565000e-01 0.000000e+00
-1.452000e+00 3.847500e-01 0.000000e+00
-1.270500e+00 3.847500e-01 0.000000e+00
-1.089000e+00 3.847500e-01 0.000000e+00
-9.075000e-01 3.847500e-01 0.000000e+00
-7.260000e-01 3.847500e-01 0.000000e+00
-1.452000e+00 5.130000e-01 0.000000e+00
-1.270500e+00 5.130000e-01 0.000000e+00
-1.089000e+00 5.130000e-01 0.000000e+00
-9.075000e-01 5.130000e-01 0.000000e+00
-7.260000e-01 5.130000e-01 0.000000e+00
-7.260000e-01 0.000000e+00 0.000000e+00
-5.445000e-01 0.000000e+00 0.000000e+00
-3.630000e-01 0.000000e+00 0.000000e+00
-1.815000e-01 0.000000e+00 0.000000e+00
0.000000e+00 0.000000e+00 0.000000e+00
-7.260000e-01 1.282500e-01 0.000000e+00
-5.445000e-01 1.282500e-01 0.000000e+00
-3.630000e-01 1.282500e-01 0.000000e+00
-1.815000e-01 1.282500e-01 0.000000e+00
0.000000e+00 1.282500e-01 0.000000e+00
-7.260000e-01 2.565000e-01 0.000000e+00
-5.445000e-01 2.565000e-01 0.000000e+00
-3.630000e-01 2.565000e-01 0.000000e+00
-1.815000e-01 2.565000e-01 0.000000e+00
0.000000e+00 2.565000e-01 0.000000e+00
-7.260000e-01 3.847500e-01 0.000000e+00
-5.445000e-01 3.847500e-01 0.000000e+00
-3.630000e-01 3.847500e-01 0.000000e+00
-1.815000e-01 3.847500e-01 0.000000e+00
0.000000e+00 3.847500e-01 0.000000e+00
-7.260000e-01 5.130000e-01 0.000000e+00
-5.445000e-01 5.130000e-01 0.000000e+00
-3.630000e-01 5.130000e-01 0.000000e+00
-1.815000e-01 5.130000e-01 0.000000e+00
0.000000e+00 5.130000e-01 0.000000e+00
0.000000e+00 0.000000e+00 0.000000e+00
1.815000e-01 0.000000e+00 0.000000e+00
3.630000e-01 0.000000e+00 0.000000e+00
5.445000e-01 0.000000e+00 0.000000e+00
7.260000e-01 0.000000e+00 0.000000e+00
0.000000e+00 1.282500e-01 0.000000e+00
1.815000e-01 1.282500e-01 0.000000e+00
3.630000e-01 1.282500e-01 0.000000e+00
5.445000e-01 1.282500e-01 0.000000e+00
7.260000e-01 1.282500e-01 0.000000e+00
0.000000e+00 2.565000e-01 0.000000e+00
1.815000e-01 2.565000e-01 0.000000e+00
3.630000e-01 2.565000e-01 0.000000e+00
5.445000e-01 2.565000e-01 0.000000e+00
7.260000e-01 2.565000e-01 0.000000e+00
0.000000e+00 3.847500e-01 0.000000e+00
1.815000e-01 3.847500e-01 0.000000e+00
3.630000e-01 3.847500e-01 0.000000e+00
5.445000e-01 3.847500e-01 0.000000e+00
7.260000e-01 3.847500e-01 0.000000e+00
0.000000e+00 5.130000e-01 0.000000e+00
1.815000e-01 5.130000e-01 0.000000e+00
3.630000e-01 5.130000e-01 0.000000e+00
5.445000e-01 5.130000e-01 0.000000e+00
7.260000e-01 5.130000e-01 0.000000e+00
7.260000e-01 0.000000e+00 0.000000e+00
9.075000e-01 0.000000e+00 0.000000e+00
1.089000e+00 0.000000e+00 0.000000e+00
1.270500e+00 0.000000e+00 0.000000e+00
1.452000e+00 0.000000e+00 0.000000e+00
7.260000e-01 1.282500e-01 0.000000e+00
9.075000e-01 1.282500e-01 0.000000e+00
1.089000e+00 1.282500e-01 0.000000e+00
1.270500e+00 1.282500e-01 0.000000e+00
1.452000e+00 1.282500e-01 0.000000e+00
7.260000e-01 2.565000e-01 0.000000e+00
9.075000e-01 2.565000e-01 0.000000e+00
1.089000e+00 2.565000e-01 0.000000e+00
1.270500e+00 2.565000e-01 0.000000e+00
1.452000e+00 2.565000e-01 0.000000e+00
7.260000e-01 3.847500e-01 0.000000e+00
9.075000e-01 3.847500e-01 0.000000e+00
1.089000e+00 3.847500e-01 0.000000e+00
1.270500e+00 3.847500e-01 0.000000e+00
1.452000e+00 3.847500e-01 0.000000e+00
7.260000e-01 5.130000e-01 0.000000e+00
9.075000e-01 5.130000e-01 0.000000e+00
1.089000e+00 5.130000e-01 0.000000e+00
1.270500e+00 5.130000e-01 0.000000e+00
1.452000e+00 5.130000e-01 0.000000e+00
1.452000e+00 0.000000e+00 0.000000e+00
1.633500e+00 0.000000e+00 0.000000e+00
1.815000e+00 0.000000e+00 0.000000e+00
1.996500e+00 0.000000e+00 0.000000e+00
2.178000e+00 0.000000e+00 0.000000e+00
1.452000e+00 1.282500e-01 0.000000e+00
1.633500e+00 1.282500e-01 0.000000e+00
1.815000e+00 1.282500e-01 0.000000e+00
1.996500e+00 1.282500e-01 0.000000e+00
2.178000e+00 1.282500e-01 0.000000e+00
1.452000e+00 2.565000e-01 0.000000e+00
1.633500e+00 2.565000e-01 0.000000e+00
1.815000e+00 2.565000e-01 0.000000e+00
1.996500e+00 2.565000e-01 0.000000e+00
2.178000e+00 2.565000e-01 0.000000e+00
1.452000e+00 3.847500e-01 0.000000e+00
1.633500e+00 3.847500e-01 0.000000e+00
1.815000e+00 3.847500e-01 0.000000e+00
1.996500e+00 3.847500e-01 0.000000e+00
2.178000e+00 3.847500e-01 0.000000e+00
1.452000e+00 5.130000e-01 0.000000e+00
1.633500e+00 5.130000e-01 0.000000e+00
1.815000e+00 5.130000e-01 0.000000e+00
1.996500e+00 5.130000e-01 0.000000e+00
2.178000e+00 5.130000e-01 0.000000e+00
2.178000e+00 0.000000e+00 0.000000e+00
2.359500e+00 0.000000e+00 0.000000e+00
2.541000e+00 0.000000e+00 0.000000e+00
2.722500e+00 0.000000e+00 0.000000e+00
2.904000e+00 0.000000e+00 0.000000e+00
2.178000e+00 1.282500e-01 0.000000e+00
2.359500e+00 1.282500e-01 0.000000e+00
2.541000e+00 1.282500e-01 0.000000e+00
2.722500e+00 1.282500e-01 0.000000e+00
2.904000e+00 1.282500e-01 0.000000e+00
2.178000e+00 2.565000e-01 0.000000e+00
2.359500e+00 2.565000e-01 0.000000e+00
2.541000e+00 2.565000e-01 0.000000e+00
2.722500e+00 2.565000e-01 0.000000e+00
2.904000e+00 2.565000e-01 0.000000e+00
2.178000e+00 3.847500e-01 0.000000e+00
2.359500e+00 3.847500e-01 0.000000e+00
2.541000e+00 3.847500e-01 0.000000e+00
2.722500e+00 3.847500e-01 0.000000e+00
2.904000e+00 3.847500e-01 0.000000e+00
2.178000e+00 5.130000e-01 0.000000e+00
2.359500e+00 5.130000e-01 0.000000e+00
2.541000e+00 5.130000e-01 0.000000e+00
2.722500e+00 5.130000e-01 0.000000e+00
2.904000e+00 5.130000e-01 0.000000e+00
2.904000e+00 0.000000e+00 0.000000e+00
3.085500e+00 0.000000e+00 0.000000e+00
3.267000e+00 0.000000e+00 0.000000e+00
3.448500e+00 0.000000e+00 0.000000e+00
3.630000e+00 0.000000e+00 0.000000e+00
2.904000e+00 1.282500e-01 0.000000e+00
3.085500e+00 1.282500e-01 0.000000e+00
3.267000e+00 1.282500e-01 0.000000e+00
3.448500e+00 1.282500e-01 0.000000e+00
3.630000e+00 1.282500e-01 0.000000e+00
2.904000e+00 2.565000e-01 0.000000e+00
3.085500e+00 2.565000e-01 0.000000e+00
3.267000e+00 2.565000e-01 0.000000e+00
3.448500e+00 2.565000e-01 0.000000e+00
3.630000e+00 2.565000e-01 0.000000e+00
2.904000e+00 3.847500e-01 0.000000e+00
3.085500e+00 3.847500e-01 0.000000e+00
3.267000e+00 3.847500e-01 0.000000e+00
3.448500e+00 3.847500e-01 0.000000e+00
3.630000e+00 3.847500e-01 0.000000e+00
2.904000e+00 5.130000e-01 0.000000e+00
[...]
<PointData>
<DataArray type="Float32" Name="V1" format="ascii">
0.000000e+00
0.000000e+00
0.000000e+00
0.000000e+00
0.000000e+00
1.264110e-02
1.103320e-02
9.646370e-03
8.480770e-03
7.536340e-03
2.028400e-02
1.822590e-02
1.638720e-02
1.476790e-02
1.336800e-02
2.292870e-02
2.157820e-02
2.022230e-02
1.886130e-02
1.749490e-02
2.057510e-02
2.109000e-02
2.115200e-02
2.076100e-02
1.991710e-02
0.000000e+00
0.000000e+00
0.000000e+00
0.000000e+00
0.000000e+00
7.536340e-03
6.471710e-03
5.650390e-03
5.072390e-03
4.737700e-03
1.336800e-02
1.178390e-02
1.052540e-02
9.592510e-03
8.985280e-03
1.749490e-02
1.593640e-02
1.462490e-02
1.356040e-02
1.274270e-02
1.991710e-02
1.892950e-02
1.794910e-02
1.697600e-02
1.601000e-02
0.000000e+00
0.000000e+00
0.000000e+00
0.000000e+00
0.000000e+00
4.737700e-03
4.464870e-03
4.273120e-03
4.162440e-03
4.132830e-03
8.985280e-03
8.474800e-03
8.097240e-03
7.852570e-03
7.740820e-03
1.274270e-02
1.202980e-02
1.147240e-02
1.107040e-02
1.082400e-02
1.601000e-02
1.512980e-02
1.439850e-02
1.381600e-02
1.338230e-02
0.000000e+00
0.000000e+00
0.000000e+00
0.000000e+00
0.000000e+00
4.132830e-03
3.865330e-03
4.062010e-03
4.722860e-03
5.847880e-03
7.740820e-03
7.105500e-03
7.292340e-03
8.301320e-03
1.013240e-02
1.082400e-02
9.720510e-03
9.690980e-03
1.073540e-02
1.285370e-02
1.338230e-02
1.171040e-02
1.125790e-02
1.202500e-02
1.401160e-02
0.000000e+00
0.000000e+00
0.000000e+00
0.000000e+00
0.000000e+00
5.847880e-03
5.526240e-03
4.037450e-03
1.381500e-03
-2.441600e-03
1.013240e-02
9.066850e-03
6.095860e-03
1.219470e-03
-5.562310e-03
1.285370e-02
1.062180e-02
6.175240e-03
-4.860750e-04
-9.362120e-03
1.401160e-02
1.019120e-02
4.275590e-03
-3.735150e-03
-1.384100e-02
0.000000e+00
0.000000e+00
0.000000e+00
0.000000e+00
0.000000e+00
-2.441600e-03
-4.304110e-03
-6.832180e-03
-1.002580e-02
-1.388500e-02
-5.562310e-03
-8.534130e-03
-1.253260e-02
-1.755760e-02
-2.360930e-02
-9.362120e-03
-1.269010e-02
-1.710120e-02
-2.259540e-02
-2.917280e-02
-1.384100e-02
-1.677190e-02
-2.053800e-02
-2.513910e-02
-3.057550e-02
0.000000e+00
0.000000e+00
0.000000e+00
0.000000e+00
0.000000e+00
-1.388500e-02
-1.424930e-02
-1.347130e-02
-1.155110e-02
-8.488610e-03
-2.360930e-02
-2.365910e-02
-2.199850e-02
-1.862760e-02
-1.354640e-02
-2.917280e-02
-2.822930e-02
-2.558150e-02
-2.122950e-02
-1.517330e-02
-3.057550e-02
-2.795990e-02
-2.422040e-02
-1.935690e-02
-1.336940e-02
0.000000e+00
0.000000e+00
0.000000e+00
0.000000e+00
0.000000e+00
-8.488610e-03
-7.111830e-03
-5.390480e-03
-3.324550e-03
-9.140470e-04
-1.354640e-02
-1.120080e-02
-8.334480e-03
-4.947270e-03
-1.039220e-03
-1.517330e-02
-1.226700e-02
-8.831990e-03
-4.868150e-03
-3.755130e-04
-1.336940e-02
-1.031040e-02
-6.883020e-03
-3.087180e-03
1.077070e-03
0.000000e+00
0.000000e+00
0.000000e+00
0.000000e+00
0.000000e+00
-9.140470e-04
1.241630e-03
2.992860e-03
4.339640e-03
5.281970e-03
-1.039220e-03
2.547800e-03
5.469810e-03
7.726820e-03
9.318830e-03
-3.755130e-04
3.918500e-03
7.430850e-03
1.016150e-02
1.211060e-02
1.077070e-03
5.353730e-03
8.875970e-03
1.164380e-02
1.365720e-02
0.000000e+00
0.000000e+00
0.000000e+00
0.000000e+00
0.000000e+00
5.281970e-03
6.210770e-03
7.070630e-03
7.861560e-03
8.583570e-03
9.318830e-03
1.090950e-02
1.236430e-02
1.368330e-02
1.486650e-02
1.211060e-02
1.409620e-02
1.588110e-02
1.746530e-02
1.884880e-02
1.365720e-02
1.577080e-02
1.762090e-02
1.920740e-02
2.053040e-02
2.057510e-02
2.109000e-02
2.115200e-02
2.076100e-02
1.991710e-02
2.078850e-02
2.098010e-02
2.100020e-02
2.084900e-02
2.052630e-02
2.103660e-02
2.097070e-02
2.092000e-02
2.088450e-02
2.086410e-02
2.131930e-02
2.106200e-02
2.091140e-02
2.086760e-02
2.093050e-02
2.163650e-02
2.125390e-02
2.097440e-02
2.079830e-02
2.072530e-02
1.991710e-02
1.892950e-02
1.794910e-02
1.697600e-02
1.601000e-02
2.052630e-02
2.003960e-02
1.947690e-02
1.883830e-02
1.812360e-02
2.086410e-02
2.073540e-02
2.048900e-02
2.012480e-02
1.964280e-02
2.093050e-02
2.101700e-02
2.098530e-02
2.083550e-02
2.056750e-02
2.072530e-02
2.088420e-02
2.096590e-02
2.097040e-02
2.089790e-02
1.601000e-02
1.512980e-02
1.439850e-02
1.381600e-02
1.338230e-02
1.812360e-02
1.728830e-02
1.655520e-02
1.592420e-02
1.539550e-02
1.964280e-02
1.887320e-02
1.818010e-02
1.756350e-02
1.702350e-02
2.056750e-02
1.988450e-02
1.927320e-02
1.873370e-02
1.826600e-02
2.089790e-02
2.032220e-02
1.983450e-02
1.943490e-02
1.912330e-02
1.338230e-02
1.171040e-02
1.125790e-02
1.202500e-02
1.401160e-02
1.539550e-02
1.307580e-02
1.225060e-02
1.292000e-02
1.508400e-02
1.702350e-02
1.417680e-02
1.307310e-02
1.371250e-02
1.609490e-02
1.826600e-02
1.501340e-02
1.372560e-02
1.440260e-02
1.704430e-02
1.912330e-02
1.558570e-02
1.420790e-02
1.499020e-02
1.793240e-02
1.401160e-02
1.019120e-02
4.275590e-03
-3.735150e-03
-1.384100e-02
1.508400e-02
9.735230e-03
2.916880e-03
-5.371070e-03
-1.512860e-02
1.609490e-02
9.757320e-03
2.468560e-03
-5.771420e-03
-1.496260e-02
1.704430e-02
1.025750e-02
2.930620e-03
-4.936210e-03
-1.334300e-02
1.793240e-02
1.123570e-02
4.303060e-03
-2.865430e-03
-1.026980e-02
-1.384100e-02
-1.677190e-02
-2.053800e-02
-2.513910e-02
-3.057550e-02
-1.512860e-02
-1.612770e-02
-1.882840e-02
-2.323070e-02
-2.933460e-02
-1.496260e-02
-1.392630e-02
-1.542330e-02
-1.945380e-02
-2.601760e-02
-1.334300e-02
-1.016750e-02
-1.032260e-02
-1.380830e-02
-2.062460e-02
-1.026980e-02
-4.851440e-03
-3.526290e-03
-6.294340e-03
-1.315560e-02
-3.057550e-02
-2.795990e-02
-2.422040e-02
-1.935690e-02
-1.336940e-02
-2.933460e-02
-2.729520e-02
-2.376780e-02
-1.875240e-02
-1.224890e-02
-2.601760e-02
-2.477220e-02
-2.164380e-02
-1.663230e-02
-9.737930e-03
-2.062460e-02
-2.039090e-02
-1.784830e-02
-1.299680e-02
-5.836480e-03
-1.315560e-02
-1.415140e-02
-1.238150e-02
-7.845860e-03
-5.445730e-04
-1.336940e-02
-1.031040e-02
-6.883020e-03
-3.087180e-03
1.077070e-03
-1.224890e-02
-9.628610e-03
-6.415180e-03
-2.608630e-03
1.791040e-03
-9.737930e-03
-7.674730e-03
-4.869390e-03
-1.321890e-03
2.967760e-03
-5.836480e-03
-4.448800e-03
-2.245620e-03
7.730580e-04
4.607230e-03
-5.445730e-04
4.918880e-05
1.456110e-03
3.676200e-03
6.709450e-03
1.077070e-03
5.353730e-03
8.875970e-03
1.164380e-02
1.365720e-02
1.791040e-03
6.452200e-03
1.016540e-02
1.293050e-02
1.474770e-02
2.967760e-03
7.809170e-03
1.155310e-02
1.419960e-02
1.574860e-02
4.607230e-03
9.424650e-03
1.303920e-02
1.545100e-02
1.665990e-02
6.709450e-03
1.129860e-02
1.462370e-02
1.668480e-02
1.748170e-02
1.365720e-02
1.577080e-02
1.762090e-02
1.920740e-02
2.053040e-02
1.474770e-02
1.671660e-02
1.849560e-02
2.008450e-02
2.148330e-02
1.574860e-02
1.753270e-02
1.919310e-02
2.072980e-02
2.214280e-02
1.665990e-02
1.821890e-02
1.971340e-02
2.114340e-02
2.250900e-02
1.748170e-02
1.877530e-02
2.005650e-02
2.132540e-02
2.258190e-02
2.163650e-02
2.125390e-02
2.097440e-02
2.079830e-02
2.072530e-02
2.197900e-02
2.160130e-02
2.131150e-02
2.110960e-02
2.099560e-02
2.233590e-02
2.198700e-02
2.170800e-02
2.149900e-02
2.136000e-02
2.270730e-02
2.241090e-02
2.216400e-02
2.196660e-02
2.181860e-02
2.309330e-02
2.287310e-02
2.267940e-02
2.251220e-02
2.237140e-02
2.072530e-02
2.088420e-02
2.096590e-02
2.097040e-02
2.089790e-02
2.099560e-02
2.105140e-02
2.109260e-02
2.111940e-02
2.113160e-02
2.136000e-02
2.132250e-02
2.131860e-02
2.134850e-02
2.141190e-02
2.181860e-02
2.169760e-02
2.164390e-02
2.165780e-02
2.173900e-02
2.237140e-02
2.217650e-02
2.206850e-02
2.204730e-02
2.211290e-02
2.089790e-02
2.032220e-02
1.983450e-02
1.943490e-02
1.912330e-02
2.113160e-02
2.055410e-02
2.014300e-02
1.989820e-02
1.981990e-02
2.141190e-02
2.081840e-02
2.046340e-02
2.034700e-02
2.046920e-02
2.173900e-02
2.111510e-02
2.079580e-02
2.078120e-02
2.107130e-02
2.211290e-02
2.144420e-02
2.114010e-02
2.120080e-02
2.162610e-02
1.912330e-02
1.558570e-02
1.420790e-02
1.499020e-02
1.793240e-02
1.981990e-02
1.629150e-02
1.494840e-02
1.579080e-02
1.881850e-02
2.046920e-02
1.708860e-02
1.583900e-02
1.672020e-02
1.973220e-02
2.107130e-02
1.797710e-02
1.687950e-02
1.777830e-02
2.067360e-02
2.162610e-02
1.895690e-02
1.807000e-02
1.896530e-02
2.164280e-02
1.793240e-02
1.123570e-02
4.303060e-03
-2.865430e-03
-1.026980e-02
1.881850e-02
1.321080e-02
7.182010e-03
7.321990e-04
-6.138670e-03
1.973220e-02
1.555110e-02
1.061140e-02
4.912870e-03
-1.544340e-03
2.067360e-02
1.825680e-02
1.459110e-02
9.676570e-03
3.513180e-03
2.164280e-02
2.132780e-02
1.912130e-02
1.502330e-02
9.033910e-03
-1.026980e-02
-4.851440e-03
-3.526290e-03
-6.294340e-03
-1.315560e-02
-6.138670e-03
6.105800e-04
3.116000e-03
1.377600e-03
-4.604640e-03
-1.544340e-03
5.966050e-03
9.447400e-03
8.899710e-03
4.322970e-03
3.513180e-03
1.121500e-02
1.546790e-02
1.627200e-02
1.362720e-02
9.033910e-03
1.635740e-02
2.117760e-02
2.349450e-02
2.330810e-02
-1.315560e-02
-1.415140e-02
-1.238150e-02
-7.845860e-03
-5.445730e-04
-4.604640e-03
-6.580010e-03
-5.606550e-03
-1.684270e-03
5.186850e-03
4.322970e-03
1.916070e-03
2.290180e-03
5.445290e-03
1.138140e-02
1.362720e-02
1.133690e-02
1.130870e-02
1.354280e-02
1.803910e-02
2.330810e-02
2.168240e-02
2.144910e-02
2.260830e-02
2.515990e-02
-5.445730e-04
4.918880e-05
1.456110e-03
3.676200e-03
6.709450e-03
5.186850e-03
5.031010e-03
5.647950e-03
7.037650e-03
9.200110e-03
1.138140e-02
1.040490e-02
1.019120e-02
1.074010e-02
1.205180e-02
1.803910e-02
1.617090e-02
1.508580e-02
1.478360e-02
1.526440e-02
2.515990e-02
2.232900e-02
2.033180e-02
1.916810e-02
1.883800e-02
6.709450e-03
1.129860e-02
1.462370e-02
1.668480e-02
1.748170e-02
9.200110e-03
1.333780e-02
1.623310e-02
1.788590e-02
1.829620e-02
1.205180e-02
1.557390e-02
1.792390e-02
1.910150e-02
1.910690e-02
1.526440e-02
1.800690e-02
1.969600e-02
2.033170e-02
1.991390e-02
1.883800e-02
2.063680e-02
2.154960e-02
2.157640e-02
2.071710e-02
1.748170e-02
1.877530e-02
2.005650e-02
2.132540e-02
2.258190e-02
1.829620e-02
1.960250e-02
2.078690e-02
2.184920e-02
2.278960e-02
1.910690e-02
2.043020e-02
2.152270e-02
2.238440e-02
2.301540e-02
1.991390e-02
2.125830e-02
2.226390e-02
2.293090e-02
2.325920e-02
2.071710e-02
2.208670e-02
2.301060e-02
2.348870e-02
2.352120e-02
2.309330e-02
2.287310e-02
2.267940e-02
2.251220e-02
2.237140e-02
2.348320e-02
2.330770e-02
2.315230e-02
2.301700e-02
2.290180e-02
2.386930e-02
2.373330e-02
2.361180e-02
2.350510e-02
2.341290e-02
2.425160e-02
2.414990e-02
2.405820e-02
2.397650e-02
2.390470e-02
2.463000e-02
2.455760e-02
2.449140e-02
2.443130e-02
2.437730e-02
2.237140e-02
2.217650e-02
2.206850e-02
2.204730e-02
2.211290e-02
2.290180e-02
2.270170e-02
2.257750e-02
2.252940e-02
2.255720e-02
2.341290e-02
2.321850e-02
2.308910e-02
2.302470e-02
2.302530e-02
2.390470e-02
2.372710e-02
2.360330e-02
2.353330e-02
2.351720e-02
2.437730e-02
2.422730e-02
2.412000e-02
2.405510e-02
2.403280e-02
2.211290e-02
2.144420e-02
2.114010e-02
2.120080e-02
2.162610e-02
2.255720e-02
2.195850e-02
2.167560e-02
2.170830e-02
2.205670e-02
2.302530e-02
2.251090e-02
2.226070e-02
2.227480e-02
2.255330e-02
2.351720e-02
2.310110e-02
2.289550e-02
2.290040e-02
2.311580e-02
2.403280e-02
2.372930e-02
2.358010e-02
2.358510e-02
2.374440e-02
2.162610e-02
1.895690e-02
1.807000e-02
1.896530e-02
2.164280e-02
2.205670e-02
2.014020e-02
1.950580e-02
2.015340e-02
2.208320e-02
2.255330e-02
2.129540e-02
2.090270e-02
2.137530e-02
2.271300e-02
2.311580e-02
2.242260e-02
2.226090e-02
2.263080e-02
2.353210e-02
2.374440e-02
2.352180e-02
2.358030e-02
2.391990e-02
2.454070e-02
2.164280e-02
2.132780e-02
1.912130e-02
1.502330e-02
9.033910e-03
2.208320e-02
2.409970e-02
2.386710e-02
2.138540e-02
1.665450e-02
2.271300e-02
2.617200e-02
2.748250e-02
2.664460e-02
2.365810e-02
2.353210e-02
2.754460e-02
2.996750e-02
3.080090e-02
3.004480e-02
2.454070e-02
2.821750e-02
3.132210e-02
3.385450e-02
3.581460e-02
9.033910e-03
1.635740e-02
2.117760e-02
2.349450e-02
2.330810e-02
1.665450e-02
2.281360e-02
2.749250e-02
3.069110e-02
3.240940e-02
2.365810e-02
2.906020e-02
3.362700e-02
3.735840e-02
4.025450e-02
3.004480e-02
3.509710e-02
3.958100e-02
4.349650e-02
4.684350e-02
3.581460e-02
4.092440e-02
4.535470e-02
4.910530e-02
5.217640e-02
2.330810e-02
2.168240e-02
2.144910e-02
2.260830e-02
2.515990e-02
3.240940e-02
3.092330e-02
3.005370e-02
2.980060e-02
3.016410e-02
4.025450e-02
3.868680e-02
3.719420e-02
3.577660e-02
3.443400e-02
4.684350e-02
4.497310e-02
4.287070e-02
4.053630e-02
3.796980e-02
5.217640e-02
4.978210e-02
4.708320e-02
4.407960e-02
4.077150e-02
2.515990e-02
2.232900e-02
2.033180e-02
1.916810e-02
1.883800e-02
3.016410e-02
2.730590e-02
2.511330e-02
2.358630e-02
2.272470e-02
3.443400e-02
3.156400e-02
2.920840e-02
2.736710e-02
2.604020e-02
3.796980e-02
3.510330e-02
3.261690e-02
3.051060e-02
2.878440e-02
4.077150e-02
3.792380e-02
3.533890e-02
3.301670e-02
3.095720e-02
1.883800e-02
2.063680e-02
2.154960e-02
2.157640e-02
2.071710e-02
2.272470e-02
2.318190e-02
2.312010e-02
2.253940e-02
2.143960e-02
2.604020e-02
2.538970e-02
2.453780e-02
2.348470e-02
2.223030e-02
2.878440e-02
2.726000e-02
2.580270e-02
2.441250e-02
2.308940e-02
3.095720e-02
2.879290e-02
2.691470e-02
2.532270e-02
2.401670e-02
2.071710e-02
2.208670e-02
2.301060e-02
2.348870e-02
2.352120e-02
2.143960e-02
2.290190e-02
2.379470e-02
2.411790e-02
2.387170e-02
2.223030e-02
2.371520e-02
2.453720e-02
2.469620e-02
2.419220e-02
2.308940e-02
2.452680e-02
2.523810e-02
2.522340e-02
2.448260e-02
2.401670e-02
2.533650e-02
2.589750e-02
2.569960e-02
2.474300e-02
2.463000e-02
2.455760e-02
2.449140e-02
2.443130e-02
2.437730e-02
2.499690e-02
2.495020e-02
2.490930e-02
2.487430e-02
2.484520e-02
2.534870e-02
2.532800e-02
2.531250e-02
2.530250e-02
2.529770e-02
2.568540e-02
2.569100e-02
2.570110e-02
2.571570e-02
2.573480e-02
2.600690e-02
2.603930e-02
2.607510e-02
2.611410e-02
2.615640e-02
2.437730e-02
2.422730e-02
2.412000e-02
2.405510e-02
2.403280e-02
2.484520e-02
2.470870e-02
2.461910e-02
2.457640e-02
2.458050e-02
2.529770e-02
2.517770e-02
2.510700e-02
2.508560e-02
2.511360e-02
2.573480e-02
2.563410e-02
2.558340e-02
2.558280e-02
2.563220e-02
2.615640e-02
2.607800e-02
2.604860e-02
2.606800e-02
2.613620e-02
2.403280e-02
2.372930e-02
2.358010e-02
2.358510e-02
2.374440e-02
2.458050e-02
2.433140e-02
2.423650e-02
2.429580e-02
2.450930e-02
2.511360e-02
2.491990e-02
2.487450e-02
2.497730e-02
2.522820e-02
2.563220e-02
2.549500e-02
2.549410e-02
2.562950e-02
2.590110e-02
2.613620e-02
2.605670e-02
2.609540e-02
2.625250e-02
2.652790e-02
2.374440e-02
2.352180e-02
2.358030e-02
2.391990e-02
2.454070e-02
2.450930e-02
2.443190e-02
2.463210e-02
2.510990e-02
2.586530e-02
2.522820e-02
2.528290e-02
2.559500e-02
2.616430e-02
2.699080e-02
2.590110e-02
2.607490e-02
2.646890e-02
2.708300e-02
2.791720e-02
2.652790e-02
2.680790e-02
2.725400e-02
2.786620e-02
2.864450e-02
2.454070e-02
2.821750e-02
3.132210e-02
3.385450e-02
3.581460e-02
2.586530e-02
2.861750e-02
3.148020e-02
3.445340e-02
3.753700e-02
2.699080e-02
2.905080e-02
3.159390e-02
3.462020e-02
3.812970e-02
2.791720e-02
2.951740e-02
3.166330e-02
3.435510e-02
3.759260e-02
2.864450e-02
3.001720e-02
3.168830e-02
3.365790e-02
3.592590e-02
3.581460e-02
4.092440e-02
4.535470e-02
4.910530e-02
5.217640e-02
3.753700e-02
4.326040e-02
4.807870e-02
5.199190e-02
5.500000e-02
3.812970e-02
4.392040e-02
4.874210e-02
5.259480e-02
5.547840e-02
3.759260e-02
4.290450e-02
4.734500e-02
5.091400e-02
5.361160e-02
3.592590e-02
4.021280e-02
4.388730e-02
4.694960e-02
4.939950e-02
5.217640e-02
4.978210e-02
4.708320e-02
4.407960e-02
4.077150e-02
5.500000e-02
5.261520e-02
4.981400e-02
4.659650e-02
4.296260e-02
5.547840e-02
5.340010e-02
5.082740e-02
4.776030e-02
4.419890e-02
5.361160e-02
5.213690e-02
5.012350e-02
4.757120e-02
4.448020e-02
4.939950e-02
4.882560e-02
4.770210e-02
4.602910e-02
4.380660e-02
4.077150e-02
3.792380e-02
3.533890e-02
3.301670e-02
3.095720e-02
4.296260e-02
3.968870e-02
3.676820e-02
3.420130e-02
3.198790e-02
4.419890e-02
4.075060e-02
3.769450e-02
3.503040e-02
3.275840e-02
4.448020e-02
4.110970e-02
3.811760e-02
3.550400e-02
3.326890e-02
4.380660e-02
4.076580e-02
3.803760e-02
3.562220e-02
3.351940e-02
3.095720e-02
2.879290e-02
2.691470e-02
2.532270e-02
2.401670e-02
3.198790e-02
2.989950e-02
2.809420e-02
2.657200e-02
2.533290e-02
3.275840e-02
3.078300e-02
2.908160e-02
2.765410e-02
2.650060e-02
3.326890e-02
3.144340e-02
2.987680e-02
2.856900e-02
2.752000e-02
3.351940e-02
3.188080e-02
3.047980e-02
2.931660e-02
2.839100e-02
2.401670e-02
2.533650e-02
2.589750e-02
2.569960e-02
2.474300e-02
2.533290e-02
2.601300e-02
2.621330e-02
2.593380e-02
2.517450e-02
2.650060e-02
2.661370e-02
2.650140e-02
2.616380e-02
2.560080e-02
2.752000e-02
2.713870e-02
2.676200e-02
2.638980e-02
2.602200e-02
2.839100e-02
2.758800e-02
2.699490e-02
2.661160e-02
2.643810e-02
2.600690e-02
2.603930e-02
2.607510e-02
2.611410e-02
2.615640e-02
2.630990e-02
2.636790e-02
2.642750e-02
2.648850e-02
2.655110e-02
2.659390e-02
2.667620e-02
2.675800e-02
2.683950e-02
2.692070e-02
2.685910e-02
2.696400e-02
2.706670e-02
2.716710e-02
2.726520e-02
2.710540e-02
2.723160e-02
2.735350e-02
2.747110e-02
2.758460e-02
2.615640e-02
2.607800e-02
2.604860e-02
2.606800e-02
2.613620e-02
2.655110e-02
2.650210e-02
2.649520e-02
2.653030e-02
2.660740e-02
2.692070e-02
2.689920e-02
2.691350e-02
2.696370e-02
2.704970e-02
2.726520e-02
2.726920e-02
2.730350e-02
2.736810e-02
2.746300e-02
2.758460e-02
2.761220e-02
2.766520e-02
2.774360e-02
2.784740e-02
2.613620e-02
2.605670e-02
2.609540e-02
2.625250e-02
2.652790e-02
2.660740e-02
2.658200e-02
2.665450e-02
2.682500e-02
2.709360e-02
2.704970e-02
2.706880e-02
2.716950e-02
2.735190e-02
2.761610e-02
2.746300e-02
2.751710e-02
2.764040e-02
2.783310e-02
2.809510e-02
2.784740e-02
2.792690e-02
2.806730e-02
2.826860e-02
2.853090e-02
2.652790e-02
2.680790e-02
2.725400e-02
2.786620e-02
2.864450e-02
2.709360e-02
2.743890e-02
2.791930e-02
2.853480e-02
2.928540e-02
2.761610e-02
2.799770e-02
2.849310e-02
2.910220e-02
2.982490e-02
2.809510e-02
2.848440e-02
2.897540e-02
2.956840e-02
3.026310e-02
2.853090e-02
2.889880e-02
2.936630e-02
2.993330e-02
3.059990e-02
2.864450e-02
3.001720e-02
3.168830e-02
3.365790e-02
3.592590e-02
2.928540e-02
3.057460e-02
3.205690e-02
3.373250e-02
3.560140e-02
2.982490e-02
3.103760e-02
3.236480e-02
3.380650e-02
3.536260e-02
3.026310e-02
3.140650e-02
3.261200e-02
3.387970e-02
3.520960e-02
3.059990e-02
3.168100e-02
3.279850e-02
3.395230e-02
3.514240e-02
3.592590e-02
4.021280e-02
4.388730e-02
4.694960e-02
4.939950e-02
3.560140e-02
3.894460e-02
4.185640e-02
4.433670e-02
4.638560e-02
3.536260e-02
3.794720e-02
4.023120e-02
4.221440e-02
4.389700e-02
3.520960e-02
3.722060e-02
3.901160e-02
4.058270e-02
4.193370e-02
3.514240e-02
3.676470e-02
3.819770e-02
3.944140e-02
4.049580e-02
4.939950e-02
4.882560e-02
4.770210e-02
4.602910e-02
4.380660e-02
4.638560e-02
4.620850e-02
4.552740e-02
4.434240e-02
4.265340e-02
4.389700e-02
4.397500e-02
4.360370e-02
4.278290e-02
4.151280e-02
4.193370e-02
4.212510e-02
4.193080e-02
4.135070e-02
4.038490e-02
4.049580e-02
4.065890e-02
4.050880e-02
4.004570e-02
3.926960e-02
4.380660e-02
4.076580e-02
3.803760e-02
3.562220e-02
3.351940e-02
4.265340e-02
4.010440e-02
3.777100e-02
3.565330e-02
3.375120e-02
4.151280e-02
3.940530e-02
3.743320e-02
3.559660e-02
3.389540e-02
4.038490e-02
3.866850e-02
3.702420e-02
3.545210e-02
3.395200e-02
3.926960e-02
3.789400e-02
3.654410e-02
3.521980e-02
3.392110e-02
3.351940e-02
3.188080e-02
3.047980e-02
2.931660e-02
2.839100e-02
3.375120e-02
3.221730e-02
3.089520e-02
2.978480e-02
2.888630e-02
3.389540e-02
3.246330e-02
3.121750e-02
3.015770e-02
2.928420e-02
3.395200e-02
3.261890e-02
3.144660e-02
3.043530e-02
2.958470e-02
3.392110e-02
3.268400e-02
3.158280e-02
3.061740e-02
2.978790e-02
2.839100e-02
2.758800e-02
2.699490e-02
2.661160e-02
2.643810e-02
2.888630e-02
2.806060e-02
2.742570e-02
2.698160e-02
2.672830e-02
2.928420e-02
2.846070e-02
2.780390e-02
2.731400e-02
2.699100e-02
2.958470e-02
2.878820e-02
2.812960e-02
2.760890e-02
2.722610e-02
2.978790e-02
2.904330e-02
2.840270e-02
2.786610e-02
2.743360e-02
2.710540e-02
2.723160e-02
2.735350e-02
2.747110e-02
2.758460e-02
2.733260e-02
2.747290e-02
2.760890e-02
2.774050e-02
2.786790e-02
2.754220e-02
2.769470e-02
2.784250e-02
2.798560e-02
2.812400e-02
2.773410e-02
2.789700e-02
2.805430e-02
2.820630e-02
2.835280e-02