<?xml version="1.0"?>
<VTKFile type="UnstructuredGrid" version="0.1" byte_order="LittleEndian" compressor="vtkZLibDataCompressor">
<UnstructuredGrid>
<Piece NumberOfPoints="2500" NumberOfCells="1600">
<Points>
<DataArray type="Float32" NumberOfComponents="3" format="ascii">
-3.630000e+00 0.000000e+00 0.000000e+00
-3.448500e+00 0.000000e+00 0.000000e+00
-3.267000e+00 0.000000e+00 0.000000e+00
-3.085500e+00 0.000000e+00 0.000000e+00
-2.904000e+00 0.000000e+00 0.000000e+00
-3.630000e+00 1.282500e-01 0.000000e+00
-3.448500e+00 1.282500e-01 0.000000e+00
-3.267000e+00 1.282500e-01 0.000000e+00
-3.085500e+00 1.282500e-01 0.000000e+00
-2.904000e+00 1.282500e-01 0.000000e+00
-3.630000e+00 2.565000e-01 0.000000e+00
-3.448500e+00 2.565000e-01 0.000000e+00
-3.267000e+00 2.565000e-01 0.000000e+00
-3.085500e+00 2.565000e-01 0.000000e+00
-2.904000e+00 2.565000e-01 0.000000e+00
-3.630000e+00 3.847500e-01 0.000000e+00
-3.448500e+00 3.847500e-01 0.000000e+00
-3.267000e+00 3.847500e-01 0.000000e+00
-3.085500e+00 3.847500e-01 0.000000e+00
-2.904000e+00 3.847500e-01 0.000000e+00
-3.630000e+00 5.130000e-01 0.000000e+00
-3.448500e+00 5.130000e-01 0.000000e+00
-3.267000e+00 5.130000e-01 0.000000e+00
-3.085500e+00 5.130000e-01 0.000000e+00
-2.904000e+00 5.130000e-01 0.000000e+00
-2.904000e+00 0.000000e+00 0.000000e+00
-2.722500e+00 0.000000e+00 0.000000e+00
-2.541000e+00 0.000000e+00 0.000000e+00
-2.359500e+00 0.000000e+00 0.000000e+00
-2.178000e+00 0.000000e+00 0.000000e+00
-2.904000e+00 1.282500e-01 0.000000e+00
-2.722500e+00 1.282500e-01 0.000000e+00
-2.541000e+00 1.282500e-01 0.000000e+00
-2.359500e+00 1.282500e-01 0.000000e+00
-2.178000e+00 1.282500e-01 0.000000e+00
-2.904000e+00 2.565000e-01 0.000000e+00
-2.722500e+00 2.565000e-01 0.000000e+00
-2.541000e+00 2.565000e-01 0.000000e+00
-2.359500e+00 2.565000e-01 0.000000e+00
-2.178000e+00 2.565000e-01 0.000000e+00
-2.904000e+00 3.847500e-01 0.000000e+00
-2.722500e+00 3.847500e-01 0.000000e+00
-2.541000e+00 3.847500e-01 0.000000e+00
-2.359500e+00 3.847500e-01 0.000000e+00
-2.178000e+00 3.847500e-01 0.000000e+00
-2.904000e+00 5.130000e-01 0.000000e+00
-2.722500e+00 5.130000e-01 0.000000e+00
-2.541000e+00 5.130000e-01 0.000000e+00
-2.359500e+00 5.130000e-01 0.000000e+00
-2.178000e+00 5.130000e-01 0.000000e+00
-2.178000e+00 0.000000e+00 0.000000e+00
-1.996500e+00 0.000000e+00 0.000000e+00
-1.815000e+00 0.000000e+00 0.000000e+00
-1.633500e+00 0.000000e+00 0.000000e+00
-1.452000e+00 0.000000e+00 0.000000e+00
-2.178000e+00 1.282500e-01 0.000000e+00
-1.996500e+00 1.282500e-01 0.000000e+00
-1.815000e+00 1.282500e-01 0.000000e+00
-1.633500e+00 1.282500e-01 0.000000e+00
-1.452000e+00 1.282500e-01 0.000000e+00
-2.178000e+00 2.565000e-01 0.000000e+00
-1.996500e+00 2.565000e-01 0.000000e+00
-1.815000e+00 2.565000e-01 0.000000e+00
-1.633500e+00 2.565000e-01 0.000000e+00
-1.452000e+00 2.565000e-01 0.000000e+00
-2.178000e+00 3.847500e-01 0.000000e+00
-1.996500e+00 3.847500e-01 0.000000e+00
-1.815000e+00 3.847500e-01 0.000000e+00
-1.633500e+00 3.847500e-01 0.000000e+00
-1.452000e+00 3.847500e-01 0.000000e+00
-2.178000e+00 5.130000e-01 0.000000e+00
-1.996500e+00 5.130000e-01 0.000000e+00
-1.815000e+00 5.130000e-01 0.000000e+00
-1.633500e+00 5.130000e-01 0.000000e+00
-1.452000e+00 5.130000e-01 0.000000e+00
-1.452000e+00 0.000000e+00 0.000000e+00
-1.270500e+00 0.000000e+00 0.000000e+00
-1.089000e+00 0.000000e+00 0.000000e+00
-9.075000e-01 0.000000e+00 0.000000e+00
-7.260000e-01 0.000000e+00 0.000000e+00
-1.452000e+00 1.282500e-01 0.000000e+00
-1.270500e+00 1.282500e-01 0.000000e+00
-1.089000e+00 1.282500e-01 0.000000e+00
-9.075000e-01 1.282500e-01 0.000000e+00
-7.260000e-01 1.282500e-01 0.000000e+00
-1.452000e+00 2.565000e-01 0.000000e+00
-1.270500e+00 2.565000e-01 0.000000e+00
-1.089000e+00 2.565000e-01 0.000000e+00
-9.075000e-01 2.565000e-01 0.000000e+00
-7.260000e-01 2.565000e-01 0.000000e+00
-1.452000e+00 3.847500e-01 0.000000e+00
-1.270500e+00 3.847500e-01 0.000000e+00
-1.089000e+00 3.847500e-01 0.000000e+00
-9.075000e-01 3.847500e-01 0.000000e+00
-7.260000e-01 3.847500e-01 0.000000e+00
-1.452000e+00 5.130000e-01 0.000000e+00
-1.270500e+00 5.130000e-01 0.000000e+00
-1.089000e+00 5.130000e-01 0.000000e+00
-9.075000e-01 5.130000e-01 0.000000e+00
-7.260000e-01 5.130000e-01 0.000000e+00
-7.260000e-01 0.000000e+00 0.000000e+00
-5.445000e-01 0.000000e+00 0.000000e+00
-3.630000e-01 0.000000e+00 0.000000e+00
-1.815000e-01 0.000000e+00 0.000000e+00
0.000000e+00 0.000000e+00 0.000000e+00
-7.260000e-01 1.282500e-01 0.000000e+00
-5.445000e-01 1.282500e-01 0.000000e+00
-3.630000e-01 1.282500e-01 0.000000e+00
-1.815000e-01 1.282500e-01 0.000000e+00
0.000000e+00 1.282500e-01 0.000000e+00
-7.260000e-01 2.565000e-01 0.000000e+00
-5.445000e-01 2.565000e-01 0.000000e+00
-3.630000e-01 2.565000e-01 0.000000e+00
-1.815000e-01 2.565000e-01 0.000000e+00
0.000000e+00 2.565000e-01 0.000000e+00
-7.260000e-01 3.847500e-01 0.000000e+00
-5.445000e-01 3.847500e-01 0.000000e+00
-3.630000e-01 3.847500e-01 0.000000e+00
-1.815000e-01 3.847500e-01 0.000000e+00
0.000000e+00 3.847500e-01 0.000000e+00
-7.260000e-01 5.130000e-01 0.000000e+00
-5.445000e-01 5.130000e-01 0.000000e+00
-3.630000e-01 5.130000e-01 0.000000e+00
-1.815000e-01 5.130000e-01 0.000000e+00
0.000000e+00 5.130000e-01 0.000000e+00
0.000000e+00 0.000000e+00 0.000000e+00
1.815000e-01 0.000000e+00 0.000000e+00
3.630000e-01 0.000000e+00 0.000000e+00
5.445000e-01 0.000000e+00 0.000000e+00
7.260000e-01 0.000000e+00 0.000000e+00
0.000000e+00 1.282500e-01 0.000000e+00
1.815000e-01 1.282500e-01 0.000000e+00
3.630000e-01 1.282500e-01 0.000000e+00
5.445000e-01 1.282500e-01 0.000000e+00
7.260000e-01 1.282500e-01 0.000000e+00
0.000000e+00 2.565000e-01 0.000000e+00
1.815000e-01 2.565000e-01 0.000000e+00
3.630000e-01 2.565000e-01 0.000000e+00
5.445000e-01 2.565000e-01 0.000000e+00
7.260000e-01 2.565000e-01 0.000000e+00
0.000000e+00 3.847500e-01 0.000000e+00
1.815000e-01 3.847500e-01 0.000000e+00
3.630000e-01 3.847500e-01 0.000000e+00
5.445000e-01 3.847500e-01 0.000000e+00
7.260000e-01 3.847500e-01 0.000000e+00
0.000000e+00 5.130000e-01 0.000000e+00
1.815000e-01 5.130000e-01 0.000000e+00
3.630000e-01 5.130000e-01 0.000000e+00
5.445000e-01 5.130000e-01 0.000000e+00
7.260000e-01 5.130000e-01 0.000000e+00
7.260000e-01 0.000000e+00 0.000000e+00
9.075000e-01 0.000000e+00 0.000000e+00
1.089000e+00 0.000000e+00 0.000000e+00
1.270500e+00 0.000000e+00 0.000000e+00
1.452000e+00 0.000000e+00 0.000000e+00
7.260000e-01 1.282500e-01 0.000000e+00
9.075000e-01 1.282500e-01 0.000000e+00
1.089000e+00 1.282500e-01 0.000000e+00
1.270500e+00 1.282500e-01 0.000000e+00
1.452000e+00 1.282500e-01 0.000000e+00
7.260000e-01 2.565000e-01 0.000000e+00
9.075000e-01 2.565000e-01 0.000000e+00
1.089000e+00 2.565000e-01 0.000000e+00
1.270500e+00 2.565000e-01 0.000000e+00
1.452000e+00 2.565000e-01 0.000000e+00
7.260000e-01 3.847500e-01 0.000000e+00
9.075000e-01 3.847500e-01 0.000000e+00
1.089000e+00 3.847500e-01 0.000000e+00
1.270500e+00 3.847500e-01 0.000000e+00
1.452000e+00 3.847500e-01 0.000000e+00
7.260000e-01 5.130000e-01 0.000000e+00
9.075000e-01 5.130000e-01 0.000000e+00
1.089000e+00 5.130000e-01 0.000000e+00
1.270500e+00 5.130000e-01 0.000000e+00
1.452000e+00 5.130000e-01 0.000000e+00
1.452000e+00 0.000000e+00 0.000000e+00
1.633500e+00 0.000000e+00 0.000000e+00
1.815000e+00 0.000000e+00 0.000000e+00
1.996500e+00 0.000000e+00 0.000000e+00
2.178000e+00 0.000000e+00 0.000000e+00
1.452000e+00 1.282500e-01 0.000000e+00
1.633500e+00 1.282500e-01 0.000000e+00
1.815000e+00 1.282500e-01 0.000000e+00
1.996500e+00 1.282500e-01 0.000000e+00
2.178000e+00 1.282500e-01 0.000000e+00
1.452000e+00 2.565000e-01 0.000000e+00
1.633500e+00 2.565000e-01 0.000000e+00
1.815000e+00 2.565000e-01 0.000000e+00
1.996500e+00 2.565000e-01 0.000000e+00
2.178000e+00 2.565000e-01 0.000000e+00
1.452000e+00 3.847500e-01 0.000000e+00
1.633500e+00 3.847500e-01 0.000000e+00
1.815000e+00 3.847500e-01 0.000000e+00
1.996500e+00 3.847500e-01 0.000000e+00
2.178000e+00 3.847500e-01 0.000000e+00
1.452000e+00 5.130000e-01 0.000000e+00
1.633500e+00 5.130000e-01 0.000000e+00
1.815000e+00 5.130000e-01 0.000000e+00
1.996500e+00 5.130000e-01 0.000000e+00
2.178000e+00 5.130000e-01 0.000000e+00
2.178000e+00 0.000000e+00 0.000000e+00
2.359500e+00 0.000000e+00 0.000000e+00
2.541000e+00 0.000000e+00 0.000000e+00
2.722500e+00 0.000000e+00 0.000000e+00
2.904000e+00 0.000000e+00 0.000000e+00
2.178000e+00 1.282500e-01 0.000000e+00
2.359500e+00 1.282500e-01 0.000000e+00
2.541000e+00 1.282500e-01 0.000000e+00
2.722500e+00 1.282500e-01 0.000000e+00
2.904000e+00 1.282500e-01 0.000000e+00
2.178000e+00 2.565000e-01 0.000000e+00
2.359500e+00 2.565000e-01 0.000000e+00
2.541000e+00 2.565000e-01 0.000000e+00
2.722500e+00 2.565000e-01 0.000000e+00
2.904000e+00 2.565000e-01 0.000000e+00
2.178000e+00 3.847500e-01 0.000000e+00
2.359500e+00 3.847500e-01 0.000000e+00
2.541000e+00 3.847500e-01 0.000000e+00
2.722500e+00 3.847500e-01 0.000000e+00
2.904000e+00 3.847500e-01 0.000000e+00
2.178000e+00 5.130000e-01 0.000000e+00
2.359500e+00 5.130000e-01 0.000000e+00
2.541000e+00 5.130000e-01 0.000000e+00
2.722500e+00 5.130000e-01 0.000000e+00
2.904000e+00 5.130000e-01 0.000000e+00
2.904000e+00 0.000000e+00 0.000000e+00
3.085500e+00 0.000000e+00 0.000000e+00
3.267000e+00 0.000000e+00 0.000000e+00
3.448500e+00 0.000000e+00 0.000000e+00
3.630000e+00 0.000000e+00 0.000000e+00
2.904000e+00 1.282500e-01 0.000000e+00
3.085500e+00 1.282500e-01 0.000000e+00
3.267000e+00 1.282500e-01 0.000000e+00
3.448500e+00 1.282500e-01 0.000000e+00
3.630000e+00 1.282500e-01 0.000000e+00
2.904000e+00 2.565000e-01 0.000000e+00
3.085500e+00 2.565000e-01 0.000000e+00
3.267000e+00 2.565000e-01 0.000000e+00
3.448500e+00 2.565000e-01 0.000000e+00
3.630000e+00 2.565000e-01 0.000000e+00
2.904000e+00 3.847500e-01 0.000000e+00
3.085500e+00 3.847500e-01 0.000000e+00
3.267000e+00 3.847500e-01 0.000000e+00
3.448500e+00 3.847500e-01 0.000000e+00
3.630000e+00 3.847500e-01 0.000000e+00
2.904000e+00 5.130000e-01 0.000000e+00
[...]
<PointData>
<DataArray type="Float32" Name="V1" format="ascii">
0.000000e+00
0.000000e+00
0.000000e+00
0.000000e+00
0.000000e+00
1.264110e-02
1.104150e-02
9.675270e-03
8.542360e-03
7.642800e-03
2.028400e-02
1.823680e-02
1.642860e-02
1.485930e-02
1.352890e-02
2.292870e-02
2.158590e-02
2.025990e-02
1.895070e-02
1.765820e-02
2.057510e-02
2.108870e-02
2.116930e-02
2.081660e-02
2.003090e-02
0.000000e+00
0.000000e+00
0.000000e+00
0.000000e+00
0.000000e+00
7.642800e-03
6.635810e-03
5.894330e-03
5.418350e-03
5.207890e-03
1.352890e-02
1.203130e-02
1.088810e-02
1.009910e-02
9.664520e-03
1.765820e-02
1.618650e-02
1.498120e-02
1.404230e-02
1.336990e-02
2.003090e-02
1.910140e-02
1.817370e-02
1.724800e-02
1.632410e-02
0.000000e+00
0.000000e+00
0.000000e+00
0.000000e+00
0.000000e+00
5.207890e-03
5.082700e-03
4.973310e-03
4.879720e-03
4.801930e-03
9.664520e-03
9.396300e-03
9.128970e-03
8.862540e-03
8.597000e-03
1.336990e-02
1.294080e-02
1.246700e-02
1.194840e-02
1.138520e-02
1.632410e-02
1.571620e-02
1.498730e-02
1.413740e-02
1.316660e-02
0.000000e+00
0.000000e+00
0.000000e+00
0.000000e+00
0.000000e+00
4.801930e-03
3.635840e-03
3.692250e-03
4.971180e-03
7.472610e-03
8.597000e-03
6.370710e-03
6.220640e-03
8.146790e-03
1.214920e-02
1.138520e-02
8.204630e-03
7.585180e-03
9.526840e-03
1.402960e-02
1.316660e-02
9.137590e-03
7.785850e-03
9.111330e-03
1.311410e-02
0.000000e+00
0.000000e+00
0.000000e+00
0.000000e+00
0.000000e+00
7.472610e-03
4.995500e-03
-5.354440e-05
-7.674520e-03
-1.786740e-02
1.214920e-02
6.346840e-03
-2.817710e-03
-1.534450e-02
-3.123350e-02
1.402960e-02
4.054010e-03
-8.292510e-03
-2.300990e-02
-4.009820e-02
1.311410e-02
-1.882980e-03
-1.647790e-02
-3.067080e-02
-4.446150e-02
0.000000e+00
0.000000e+00
0.000000e+00
0.000000e+00
0.000000e+00
-1.786740e-02
-1.797670e-02
-1.816470e-02
-1.843140e-02
-1.877680e-02
-3.123350e-02
-3.021920e-02
-2.966160e-02
-2.956050e-02
-2.991620e-02
-4.009820e-02
-3.672750e-02
-3.449060e-02
-3.338750e-02
-3.341810e-02
-4.446150e-02
-3.750160e-02
-3.265180e-02
-2.991210e-02
-2.928250e-02
0.000000e+00
0.000000e+00
0.000000e+00
0.000000e+00
0.000000e+00
-1.877680e-02
-1.740740e-02
-1.498940e-02
-1.152290e-02
-7.007690e-03
-2.991620e-02
-2.752280e-02
-2.354330e-02
-1.797770e-02
-1.082600e-02
-3.341810e-02
-3.034610e-02
-2.566160e-02
-1.936460e-02
-1.145500e-02
-2.928250e-02
-2.587740e-02
-2.134440e-02
-1.568350e-02
-8.894580e-03
0.000000e+00
0.000000e+00
0.000000e+00
0.000000e+00
0.000000e+00
-7.007690e-03
-3.817680e-03
-1.174640e-03
9.214550e-04
2.470590e-03
-1.082600e-02
-5.653490e-03
-1.359820e-03
2.054980e-03
4.590930e-03
-1.145500e-02
-5.507420e-03
-5.555630e-04
3.400580e-03
6.361020e-03
-8.894580e-03
-3.379470e-03
1.238140e-03
4.958260e-03
7.780870e-03
0.000000e+00
0.000000e+00
0.000000e+00
0.000000e+00
0.000000e+00
2.470590e-03
4.220000e-03
5.596380e-03
6.599740e-03
7.230060e-03
4.590930e-03
7.459890e-03
9.734780e-03
1.141560e-02
1.250230e-02
6.361020e-03
9.719670e-03
1.241520e-02
1.444760e-02
1.581680e-02
7.780870e-03
1.099930e-02
1.363760e-02
1.569560e-02
1.717350e-02
0.000000e+00
0.000000e+00
0.000000e+00
0.000000e+00
0.000000e+00
7.230060e-03
7.807410e-03
8.416090e-03
9.056110e-03
9.727440e-03
1.250230e-02
1.355990e-02
1.462420e-02
1.569510e-02
1.677260e-02
1.581680e-02
1.725760e-02
1.862430e-02
1.991690e-02
2.113540e-02
1.717350e-02
1.890040e-02
2.041640e-02
2.172160e-02
2.281580e-02
2.057510e-02
2.108870e-02
2.116930e-02
2.081660e-02
2.003090e-02
2.078850e-02
2.097450e-02
2.100470e-02
2.087910e-02
2.059760e-02
2.103660e-02
2.096060e-02
2.091390e-02
2.089630e-02
2.090790e-02
2.131930e-02
2.104700e-02
2.089670e-02
2.086830e-02
2.096180e-02
2.163650e-02
2.123370e-02
2.095320e-02
2.079500e-02
2.075920e-02
2.003090e-02
1.910140e-02
1.817370e-02
1.724800e-02
1.632410e-02
2.059760e-02
2.012190e-02
1.954960e-02
1.888070e-02
1.811510e-02
2.090790e-02
2.074270e-02
2.043820e-02
1.999430e-02
1.941100e-02
2.096180e-02
2.096370e-02
2.083940e-02
2.058880e-02
2.021180e-02
2.075920e-02
2.078500e-02
2.075330e-02
2.066410e-02
2.051740e-02
1.632410e-02
1.571620e-02
1.498730e-02
1.413740e-02
1.316660e-02
1.811510e-02
1.735140e-02
1.645070e-02
1.541290e-02
1.423810e-02
1.941100e-02
1.848330e-02
1.748030e-02
1.640210e-02
1.524870e-02
2.021180e-02
1.911180e-02
1.807620e-02
1.710510e-02
1.619850e-02
2.051740e-02
1.923680e-02
1.823830e-02
1.752180e-02
1.708740e-02
1.316660e-02
9.137590e-03
7.785850e-03
9.111330e-03
1.311410e-02
1.423810e-02
9.916700e-03
8.026870e-03
8.568590e-03
1.154190e-02
1.524870e-02
1.065990e-02
8.352180e-03
8.325550e-03
1.058000e-02
1.619850e-02
1.136720e-02
8.761780e-03
8.382210e-03
1.022850e-02
1.708740e-02
1.203860e-02
9.255670e-03
8.738580e-03
1.048740e-02
1.311410e-02
-1.882980e-03
-1.647790e-02
-3.067080e-02
-4.446150e-02
1.154190e-02
-5.678650e-03
-2.075720e-02
-3.369390e-02
-4.448860e-02
1.058000e-02
-7.091560e-03
-2.162770e-02
-3.302830e-02
-4.129350e-02
1.022850e-02
-6.121730e-03
-1.908930e-02
-2.867420e-02
-3.487640e-02
1.048740e-02
-2.769150e-03
-1.314210e-02
-2.063150e-02
-2.523730e-02
-4.446150e-02
-3.750160e-02
-3.265180e-02
-2.991210e-02
-2.928250e-02
-4.448860e-02
-3.664430e-02
-3.068520e-02
-2.661130e-02
-2.442250e-02
-4.129350e-02
-3.339180e-02
-2.691610e-02
-2.186670e-02
-1.824340e-02
-3.487640e-02
-2.774400e-02
-2.134470e-02
-1.567830e-02
-1.074500e-02
-2.523730e-02
-1.970110e-02
-1.397080e-02
-8.046210e-03
-1.927390e-03
-2.928250e-02
-2.587740e-02
-2.134440e-02
-1.568350e-02
-8.894580e-03
-2.442250e-02
-2.304450e-02
-1.977600e-02
-1.461700e-02
-7.567530e-03
-1.824340e-02
-1.831720e-02
-1.618020e-02
-1.183210e-02
-5.273210e-03
-1.074500e-02
-1.169560e-02
-1.055700e-02
-7.328970e-03
-2.011630e-03
-1.927390e-03
-3.179750e-03
-2.906440e-03
-1.107450e-03
2.217220e-03
-8.894580e-03
-3.379470e-03
1.238140e-03
4.958260e-03
7.780870e-03
-7.567530e-03
-1.711630e-03
3.021450e-03
6.631690e-03
9.119100e-03
-5.273210e-03
6.333260e-04
5.261070e-03
8.610030e-03
1.068020e-02
-2.011630e-03
3.655390e-03
7.957030e-03
1.089330e-02
1.246420e-02
2.217220e-03
7.354570e-03
1.110930e-02
1.348150e-02
1.447100e-02
7.780870e-03
1.099930e-02
1.363760e-02
1.569560e-02
1.717350e-02
9.119100e-03
1.213710e-02
1.460910e-02
1.653500e-02
1.791500e-02
1.068020e-02
1.336660e-02
1.557200e-02
1.729620e-02
1.853940e-02
1.246420e-02
1.468800e-02
1.652640e-02
1.797920e-02
1.904660e-02
1.447100e-02
1.610130e-02
1.747230e-02
1.858410e-02
1.943660e-02
1.717350e-02
1.890040e-02
2.041640e-02
2.172160e-02
2.281580e-02
1.791500e-02
1.972020e-02
2.128060e-02
2.259600e-02
2.366650e-02
1.853940e-02
2.036720e-02
2.191690e-02
2.318840e-02
2.418160e-02
1.904660e-02
2.084130e-02
2.232530e-02
2.349860e-02
2.436120e-02
1.943660e-02
2.114250e-02
2.250590e-02
2.352680e-02
2.420510e-02
2.163650e-02
2.123370e-02
2.095320e-02
2.079500e-02
2.075920e-02
2.197900e-02
2.158950e-02
2.130230e-02
2.111750e-02
2.103510e-02
2.233590e-02
2.198490e-02
2.171210e-02
2.151750e-02
2.140110e-02
2.270730e-02
2.241990e-02
2.218240e-02
2.199480e-02
2.185700e-02
2.309330e-02
2.289460e-02
2.271330e-02
2.254940e-02
2.240310e-02
2.075920e-02
2.078500e-02
2.075330e-02
2.066410e-02
2.051740e-02
2.103510e-02
2.092020e-02
2.083870e-02
2.079050e-02
2.077560e-02
2.140110e-02
2.116770e-02
2.103720e-02
2.100940e-02
2.108440e-02
2.185700e-02
2.152750e-02
2.134880e-02
2.132090e-02
2.144390e-02
2.240310e-02
2.199950e-02
2.177350e-02
2.172500e-02
2.185400e-02
2.051740e-02
1.923680e-02
1.823830e-02
1.752180e-02
1.708740e-02
2.077560e-02
1.923170e-02
1.828280e-02
1.792900e-02
1.817020e-02
2.108440e-02
1.935310e-02
1.846480e-02
1.841930e-02
1.921670e-02
2.144390e-02
1.960120e-02
1.878420e-02
1.899280e-02
2.022710e-02
2.185400e-02
1.997580e-02
1.924100e-02
1.964950e-02
2.120120e-02
1.708740e-02
1.203860e-02
9.255670e-03
8.738580e-03
1.048740e-02
1.817020e-02
1.319040e-02
1.048940e-02
1.006720e-02
1.192390e-02
1.921670e-02
1.461810e-02
1.216860e-02
1.186850e-02
1.371750e-02
2.022710e-02
1.632180e-02
1.429350e-02
1.414230e-02
1.586820e-02
2.120120e-02
1.830140e-02
1.686390e-02
1.688880e-02
1.837600e-02
1.048740e-02
-2.769150e-03
-1.314210e-02
-2.063150e-02
-2.523730e-02
1.192390e-02
4.557280e-03
-1.842410e-03
-7.275160e-03
-1.174100e-02
1.371750e-02
1.178630e-02
9.080560e-03
5.600240e-03
1.345370e-03
1.586820e-02
1.891800e-02
1.962680e-02
1.799480e-02
1.402180e-02
1.837600e-02
2.595220e-02
2.979630e-02
2.990840e-02
2.628840e-02
-2.523730e-02
-1.970110e-02
-1.397080e-02
-8.046210e-03
-1.927390e-03
-1.174100e-02
-9.976690e-03
-6.579990e-03
-1.550890e-03
5.110610e-03
1.345370e-03
3.330020e-04
2.059630e-03
6.525240e-03
1.372980e-02
1.402180e-02
1.122790e-02
1.194810e-02
1.618220e-02
2.393030e-02
2.628840e-02
2.270810e-02
2.308530e-02
2.741990e-02
3.571200e-02
-1.927390e-03
-3.179750e-03
-2.906440e-03
-1.107450e-03
2.217220e-03
5.110610e-03
4.079390e-03
3.930490e-03
4.663910e-03
6.279640e-03
1.372980e-02
1.239700e-02
1.140400e-02
1.075100e-02
1.043790e-02
2.393030e-02
2.177300e-02
1.951420e-02
1.715390e-02
1.469200e-02
3.571200e-02
3.220750e-02
2.826100e-02
2.387250e-02
1.904200e-02
2.217220e-03
7.354570e-03
1.110930e-02
1.348150e-02
1.447100e-02
6.279640e-03
1.102450e-02
1.434900e-02
1.625300e-02
1.673660e-02
1.043790e-02
1.463460e-02
1.744240e-02
1.886120e-02
1.889110e-02
1.469200e-02
1.818490e-02
2.038960e-02
2.130610e-02
2.093440e-02
1.904200e-02
2.167540e-02
2.319060e-02
2.358760e-02
2.286650e-02
1.447100e-02
1.610130e-02
1.747230e-02
1.858410e-02
1.943660e-02
1.673660e-02
1.765910e-02
1.850760e-02
1.928210e-02
1.998260e-02
1.889110e-02
1.918050e-02
1.955640e-02
2.001870e-02
2.056740e-02
2.093440e-02
2.066550e-02
2.061870e-02
2.079390e-02
2.119110e-02
2.286650e-02
2.211410e-02
2.169450e-02
2.160770e-02
2.185370e-02
1.943660e-02
2.114250e-02
2.250590e-02
2.352680e-02
2.420510e-02
1.998260e-02
2.161170e-02
2.286310e-02
2.373690e-02
2.423310e-02
2.056740e-02
2.209440e-02
2.321970e-02
2.394340e-02
2.426550e-02
2.119110e-02
2.259070e-02
2.357570e-02
2.414620e-02
2.430220e-02
2.185370e-02
2.310060e-02
2.393120e-02
2.434540e-02
2.434330e-02
2.309330e-02
2.289460e-02
2.271330e-02
2.254940e-02
2.240310e-02
2.348320e-02
2.331530e-02
2.316680e-02
2.303760e-02
2.292780e-02
2.386930e-02
2.372470e-02
2.360390e-02
2.350680e-02
2.343340e-02
2.425160e-02
2.412280e-02
2.402460e-02
2.395690e-02
2.391960e-02
2.463000e-02
2.450960e-02
2.442890e-02
2.438790e-02
2.438670e-02
2.240310e-02
2.199950e-02
2.177350e-02
2.172500e-02
2.185400e-02
2.292780e-02
2.251370e-02
2.227810e-02
2.222100e-02
2.234240e-02
2.343340e-02
2.302600e-02
2.279370e-02
2.273650e-02
2.285440e-02
2.391960e-02
2.353630e-02
2.332030e-02
2.327150e-02
2.339000e-02
2.438670e-02
2.404470e-02
2.385780e-02
2.382590e-02
2.394920e-02
2.185400e-02
1.997580e-02
1.924100e-02
1.964950e-02
2.120120e-02
2.234240e-02
2.073450e-02
2.010980e-02
2.046840e-02
2.181010e-02
2.285440e-02
2.156190e-02
2.106780e-02
2.137200e-02
2.247460e-02
2.339000e-02
2.245800e-02
2.211480e-02
2.236040e-02
2.319480e-02
2.394920e-02
2.342280e-02
2.325090e-02
2.343350e-02
2.397060e-02
2.120120e-02
1.830140e-02
1.686390e-02
1.688880e-02
1.837600e-02
2.181010e-02
1.998220e-02
1.918770e-02
1.942660e-02
2.069870e-02
2.247460e-02
2.146970e-02
2.118600e-02
2.162330e-02
2.278170e-02
2.319480e-02
2.276390e-02
2.285870e-02
2.347900e-02
2.462500e-02
2.397060e-02
2.386480e-02
2.420590e-02
2.499370e-02
2.622850e-02
1.837600e-02
2.595220e-02
2.979630e-02
2.990840e-02
2.628840e-02
2.069870e-02
3.023230e-02
3.648820e-02
3.946640e-02
3.916680e-02
2.278170e-02
3.300120e-02
4.059900e-02
4.557500e-02
4.792920e-02
2.462500e-02
3.425880e-02
4.212850e-02
4.823420e-02
5.257580e-02
2.622850e-02
3.400500e-02
4.107690e-02
4.744410e-02
5.310650e-02
2.628840e-02
2.270810e-02
2.308530e-02
2.741990e-02
3.571200e-02
3.916680e-02
3.736760e-02
3.794810e-02
4.090820e-02
4.624790e-02
4.792920e-02
4.777550e-02
4.861910e-02
5.046020e-02
5.329870e-02
5.257580e-02
5.393170e-02
5.509840e-02
5.607600e-02
5.686450e-02
5.310650e-02
5.583620e-02
5.738590e-02
5.775560e-02
5.694520e-02
3.571200e-02
3.220750e-02
2.826100e-02
2.387250e-02
1.904200e-02
4.624790e-02
4.007540e-02
3.412840e-02
2.840680e-02
2.291060e-02
5.329870e-02
4.545860e-02
3.834620e-02
3.196160e-02
2.630480e-02
5.686450e-02
4.835700e-02
4.091450e-02
3.453700e-02
2.922460e-02
5.694520e-02
4.877050e-02
4.183310e-02
3.613300e-02
3.167010e-02
1.904200e-02
2.167540e-02
2.319060e-02
2.358760e-02
2.286650e-02
2.291060e-02
2.456650e-02
2.536090e-02
2.529380e-02
2.436510e-02
2.630480e-02
2.710670e-02
2.726840e-02
2.679000e-02
2.567140e-02
2.922460e-02
2.929570e-02
2.891290e-02
2.807610e-02
2.678560e-02
3.167010e-02
3.113360e-02
3.029440e-02
2.915230e-02
2.770760e-02
2.286650e-02
2.211410e-02
2.169450e-02
2.160770e-02
2.185370e-02
2.436510e-02
2.343470e-02
2.283980e-02
2.258050e-02
2.265670e-02
2.567140e-02
2.461640e-02
2.389100e-02
2.349510e-02
2.342880e-02
2.678560e-02
2.565930e-02
2.484790e-02
2.435150e-02
2.417000e-02
2.770760e-02
2.656340e-02
2.571070e-02
2.514970e-02
2.488020e-02
2.185370e-02
2.310060e-02
2.393120e-02
2.434540e-02
2.434330e-02
2.265670e-02
2.361890e-02
2.424760e-02
2.454300e-02
2.450490e-02
2.342880e-02
2.411940e-02
2.455710e-02
2.474200e-02
2.467420e-02
2.417000e-02
2.460210e-02
2.485970e-02
2.494270e-02
2.485110e-02
2.488020e-02
2.506710e-02
2.515530e-02
2.514480e-02
2.503570e-02
2.463000e-02
2.450960e-02
2.442890e-02
2.438790e-02
2.438670e-02
2.499690e-02
2.490120e-02
2.484300e-02
2.482260e-02
2.483970e-02
2.534870e-02
2.528090e-02
2.524720e-02
2.524750e-02
2.528180e-02
2.568540e-02
2.564890e-02
2.564140e-02
2.566270e-02
2.571290e-02
2.600690e-02
2.600510e-02
2.602560e-02
2.606820e-02
2.613310e-02
2.438670e-02
2.404470e-02
2.385780e-02
2.382590e-02
2.394920e-02
2.483970e-02
2.455890e-02
2.441290e-02
2.440170e-02
2.452520e-02
2.528180e-02
2.506070e-02
2.495600e-02
2.496780e-02
2.509600e-02
2.571290e-02
2.554980e-02
2.548690e-02
2.552420e-02
2.566180e-02
2.613310e-02
2.602640e-02
2.600570e-02
2.607100e-02
2.622240e-02
2.394920e-02
2.342280e-02
2.325090e-02
2.343350e-02
2.397060e-02
2.452520e-02
2.422870e-02
2.420920e-02
2.446660e-02
2.500100e-02
2.509600e-02
2.496730e-02
2.506620e-02
2.539300e-02
2.594750e-02
2.566180e-02
2.563850e-02
2.582210e-02
2.621260e-02
2.680990e-02
2.622240e-02
2.624250e-02
2.647680e-02
2.692550e-02
2.758840e-02
2.397060e-02
2.386480e-02
2.420590e-02
2.499370e-02
2.622850e-02
2.500100e-02
2.517330e-02
2.575370e-02
2.674210e-02
2.813860e-02
2.594750e-02
2.640870e-02
2.721050e-02
2.835270e-02
2.983530e-02
2.680990e-02
2.757110e-02
2.857630e-02
2.982540e-02
3.131850e-02
2.758840e-02
2.866050e-02
2.985120e-02
3.116040e-02
3.258820e-02
2.622850e-02
3.400500e-02
4.107690e-02
4.744410e-02
5.310650e-02
2.813860e-02
3.471050e-02
4.079920e-02
4.640470e-02
5.152700e-02
2.983530e-02
3.531300e-02
4.046970e-02
4.530550e-02
4.982030e-02
3.131850e-02
3.581250e-02
4.008840e-02
4.414630e-02
4.798620e-02
3.258820e-02
3.620900e-02
3.965530e-02
4.292730e-02
4.602490e-02
5.310650e-02
5.583620e-02
5.738590e-02
5.775560e-02
5.694520e-02
5.152700e-02
5.432030e-02
5.585250e-02
5.612340e-02
5.513320e-02
4.982030e-02
5.244120e-02
5.383120e-02
5.399040e-02
5.291860e-02
4.798620e-02
5.019880e-02
5.132220e-02
5.135650e-02
5.030160e-02
4.602490e-02
4.759320e-02
4.832550e-02
4.822180e-02
4.728210e-02
5.694520e-02
4.877050e-02
4.183310e-02
3.613300e-02
3.167010e-02
5.513320e-02
4.824920e-02
4.235030e-02
3.743650e-02
3.350790e-02
5.291860e-02
4.735070e-02
4.249850e-02
3.836200e-02
3.494120e-02
5.030160e-02
4.607510e-02
4.227770e-02
3.890940e-02
3.597010e-02
4.728210e-02
4.442240e-02
4.168790e-02
3.907860e-02
3.659450e-02
3.167010e-02
3.113360e-02
3.029440e-02
2.915230e-02
2.770760e-02
3.350790e-02
3.241450e-02
3.119980e-02
2.986390e-02
2.840670e-02
3.494120e-02
3.339400e-02
3.188620e-02
3.041800e-02
2.898920e-02
3.597010e-02
3.407210e-02
3.235370e-02
3.081470e-02
2.945530e-02
3.659450e-02
3.444900e-02
3.260220e-02
3.105410e-02
2.980480e-02
2.770760e-02
2.656340e-02
2.571070e-02
2.514970e-02
2.488020e-02
2.840670e-02
2.735470e-02
2.652810e-02
2.592690e-02
2.555110e-02
2.898920e-02
2.803140e-02
2.723810e-02
2.660940e-02
2.614510e-02
2.945530e-02
2.859360e-02
2.784090e-02
2.719710e-02
2.666230e-02
2.980480e-02
2.904120e-02
2.833640e-02
2.769020e-02
2.710270e-02
2.488020e-02
2.506710e-02
2.515530e-02
2.514480e-02
2.503570e-02
2.555110e-02
2.552280e-02
2.545980e-02
2.536200e-02
2.522940e-02
2.614510e-02
2.593290e-02
2.574140e-02
2.557060e-02
2.542040e-02
2.666230e-02
2.629740e-02
2.600010e-02
2.577050e-02
2.560870e-02
2.710270e-02
2.661620e-02
2.623600e-02
2.596190e-02
2.579410e-02
2.600690e-02
2.600510e-02
2.602560e-02
2.606820e-02
2.613310e-02
2.630990e-02
2.634070e-02
2.638900e-02
2.645470e-02
2.653770e-02
2.659390e-02
2.665560e-02
2.672990e-02
2.681690e-02
2.691660e-02
2.685910e-02
2.694960e-02
2.704830e-02
2.715500e-02
2.726990e-02
2.710540e-02
2.722290e-02
2.734400e-02
2.746890e-02
2.759750e-02
2.613310e-02
2.602640e-02
2.600570e-02
2.607100e-02
2.622240e-02
2.653770e-02
2.646910e-02
2.648110e-02
2.657380e-02
2.674710e-02
2.691660e-02
2.688160e-02
2.692160e-02
2.703650e-02
2.722650e-02
2.726990e-02
2.726390e-02
2.732700e-02
2.745920e-02
2.766050e-02
2.759750e-02
2.761610e-02
2.769760e-02
2.784190e-02
2.804910e-02
2.622240e-02
2.624250e-02
2.647680e-02
2.692550e-02
2.758840e-02
2.674710e-02
2.683610e-02
2.711250e-02
2.757630e-02
2.822750e-02
2.722650e-02
2.738180e-02
2.769450e-02
2.816470e-02
2.879240e-02
2.766050e-02
2.787940e-02
2.822280e-02
2.869070e-02
2.928320e-02
2.804910e-02
2.832900e-02
2.869740e-02
2.915440e-02
2.969990e-02
2.758840e-02
2.866050e-02
2.985120e-02
3.116040e-02
3.258820e-02
2.822750e-02
2.935600e-02
3.057960e-02
3.189800e-02
3.331140e-02
2.879240e-02
2.990780e-02
3.110510e-02
3.238420e-02
3.374520e-02
2.928320e-02
3.031580e-02
3.142780e-02
3.261910e-02
3.388970e-02
2.969990e-02
3.058010e-02
3.154760e-02
3.260260e-02
3.374490e-02
3.258820e-02
3.620900e-02
3.965530e-02
4.292730e-02
4.602490e-02
3.331140e-02
3.629230e-02
3.909330e-02
4.171440e-02
4.415560e-02
3.374520e-02
3.619180e-02
3.845900e-02
4.054680e-02
4.245520e-02
3.388970e-02
3.590760e-02
3.775260e-02
3.942460e-02
4.092380e-02
3.374490e-02
3.543970e-02
3.697400e-02
3.834790e-02
3.956120e-02
4.602490e-02
4.759320e-02
4.832550e-02
4.822180e-02
4.728210e-02
4.415560e-02
4.536740e-02
4.593340e-02
4.585360e-02
4.512790e-02
4.245520e-02
4.341440e-02
4.387120e-02
4.382550e-02
4.327740e-02
4.092380e-02
4.173430e-02
4.213890e-02
4.213760e-02
4.173040e-02
3.956120e-02
4.032700e-02
4.073660e-02
4.078990e-02
4.048700e-02
4.728210e-02
4.442240e-02
4.168790e-02
3.907860e-02
3.659450e-02
4.512790e-02
4.284760e-02
4.063560e-02
3.849180e-02
3.641620e-02
4.327740e-02
4.146760e-02
3.968290e-02
3.792330e-02
3.618860e-02
4.173040e-02
4.028240e-02
3.883000e-02
3.737310e-02
3.591170e-02
4.048700e-02
3.929190e-02
3.807670e-02
3.684120e-02
3.558550e-02
3.659450e-02
3.444900e-02
3.260220e-02
3.105410e-02
2.980480e-02
3.641620e-02
3.450510e-02
3.283410e-02
3.140320e-02
3.021240e-02
3.618860e-02
3.449530e-02
3.299050e-02
3.167420e-02
3.054630e-02
3.591170e-02
3.441970e-02
3.307160e-02
3.186720e-02
3.080670e-02
3.558550e-02
3.427830e-02
3.307720e-02
3.198230e-02
3.099360e-02
2.980480e-02
2.904120e-02
2.833640e-02
2.769020e-02
2.710270e-02
3.021240e-02
2.942450e-02
2.869940e-02
2.803710e-02
2.743770e-02
3.054630e-02
2.973850e-02
2.899880e-02
2.832710e-02
2.772350e-02
3.080670e-02
2.998340e-02
2.923450e-02
2.856010e-02
2.796020e-02
3.099360e-02
3.015900e-02
2.940660e-02
2.873620e-02
2.814780e-02
2.710270e-02
2.661620e-02
2.623600e-02
2.596190e-02
2.579410e-02
2.743770e-02
2.692930e-02
2.651530e-02
2.619570e-02
2.597050e-02
2.772350e-02
2.720490e-02
2.676730e-02
2.641060e-02
2.613470e-02
2.796020e-02
2.744320e-02
2.699200e-02
2.660650e-02
2.628680e-02
2.814780e-02
2.764400e-02
2.718920e-02
2.678350e-02
2.642670e-02
2.710540e-02
2.722290e-02
2.734400e-02
2.746890e-02
2.759750e-02
2.733260e-02
2.746610e-02
2.760260e-02
2.774200e-02
2.788440e-02
2.754220e-02
2.768930e-02
2.783840e-02
2.798950e-02
2.814280e-02
2.773410e-02
2.789240e-02
2.805150e-02
2.821160e-02
2.837260e-02
2.790840e-02