<?xml version="1.0"?>
<VTKFile type="UnstructuredGrid" version="0.1" byte_order="LittleEndian" compressor="vtkZLibDataCompressor">
<UnstructuredGrid>
<Piece NumberOfPoints="2500" NumberOfCells="1600">
<Points>
<DataArray type="Float32" NumberOfComponents="3" format="ascii">
-3.630000e+00 0.000000e+00 0.000000e+00
-3.448500e+00 0.000000e+00 0.000000e+00
-3.267000e+00 0.000000e+00 0.000000e+00
-3.085500e+00 0.000000e+00 0.000000e+00
-2.904000e+00 0.000000e+00 0.000000e+00
-3.630000e+00 1.282500e-01 0.000000e+00
-3.448500e+00 1.282500e-01 0.000000e+00
-3.267000e+00 1.282500e-01 0.000000e+00
-3.085500e+00 1.282500e-01 0.000000e+00
-2.904000e+00 1.282500e-01 0.000000e+00
-3.630000e+00 2.565000e-01 0.000000e+00
-3.448500e+00 2.565000e-01 0.000000e+00
-3.267000e+00 2.565000e-01 0.000000e+00
-3.085500e+00 2.565000e-01 0.000000e+00
-2.904000e+00 2.565000e-01 0.000000e+00
-3.630000e+00 3.847500e-01 0.000000e+00
-3.448500e+00 3.847500e-01 0.000000e+00
-3.267000e+00 3.847500e-01 0.000000e+00
-3.085500e+00 3.847500e-01 0.000000e+00
-2.904000e+00 3.847500e-01 0.000000e+00
-3.630000e+00 5.130000e-01 0.000000e+00
-3.448500e+00 5.130000e-01 0.000000e+00
-3.267000e+00 5.130000e-01 0.000000e+00
-3.085500e+00 5.130000e-01 0.000000e+00
-2.904000e+00 5.130000e-01 0.000000e+00
-2.904000e+00 0.000000e+00 0.000000e+00
-2.722500e+00 0.000000e+00 0.000000e+00
-2.541000e+00 0.000000e+00 0.000000e+00
-2.359500e+00 0.000000e+00 0.000000e+00
-2.178000e+00 0.000000e+00 0.000000e+00
-2.904000e+00 1.282500e-01 0.000000e+00
-2.722500e+00 1.282500e-01 0.000000e+00
-2.541000e+00 1.282500e-01 0.000000e+00
-2.359500e+00 1.282500e-01 0.000000e+00
-2.178000e+00 1.282500e-01 0.000000e+00
-2.904000e+00 2.565000e-01 0.000000e+00
-2.722500e+00 2.565000e-01 0.000000e+00
-2.541000e+00 2.565000e-01 0.000000e+00
-2.359500e+00 2.565000e-01 0.000000e+00
-2.178000e+00 2.565000e-01 0.000000e+00
-2.904000e+00 3.847500e-01 0.000000e+00
-2.722500e+00 3.847500e-01 0.000000e+00
-2.541000e+00 3.847500e-01 0.000000e+00
-2.359500e+00 3.847500e-01 0.000000e+00
-2.178000e+00 3.847500e-01 0.000000e+00
-2.904000e+00 5.130000e-01 0.000000e+00
-2.722500e+00 5.130000e-01 0.000000e+00
-2.541000e+00 5.130000e-01 0.000000e+00
-2.359500e+00 5.130000e-01 0.000000e+00
-2.178000e+00 5.130000e-01 0.000000e+00
-2.178000e+00 0.000000e+00 0.000000e+00
-1.996500e+00 0.000000e+00 0.000000e+00
-1.815000e+00 0.000000e+00 0.000000e+00
-1.633500e+00 0.000000e+00 0.000000e+00
-1.452000e+00 0.000000e+00 0.000000e+00
-2.178000e+00 1.282500e-01 0.000000e+00
-1.996500e+00 1.282500e-01 0.000000e+00
-1.815000e+00 1.282500e-01 0.000000e+00
-1.633500e+00 1.282500e-01 0.000000e+00
-1.452000e+00 1.282500e-01 0.000000e+00
-2.178000e+00 2.565000e-01 0.000000e+00
-1.996500e+00 2.565000e-01 0.000000e+00
-1.815000e+00 2.565000e-01 0.000000e+00
-1.633500e+00 2.565000e-01 0.000000e+00
-1.452000e+00 2.565000e-01 0.000000e+00
-2.178000e+00 3.847500e-01 0.000000e+00
-1.996500e+00 3.847500e-01 0.000000e+00
-1.815000e+00 3.847500e-01 0.000000e+00
-1.633500e+00 3.847500e-01 0.000000e+00
-1.452000e+00 3.847500e-01 0.000000e+00
-2.178000e+00 5.130000e-01 0.000000e+00
-1.996500e+00 5.130000e-01 0.000000e+00
-1.815000e+00 5.130000e-01 0.000000e+00
-1.633500e+00 5.130000e-01 0.000000e+00
-1.452000e+00 5.130000e-01 0.000000e+00
-1.452000e+00 0.000000e+00 0.000000e+00
-1.270500e+00 0.000000e+00 0.000000e+00
-1.089000e+00 0.000000e+00 0.000000e+00
-9.075000e-01 0.000000e+00 0.000000e+00
-7.260000e-01 0.000000e+00 0.000000e+00
-1.452000e+00 1.282500e-01 0.000000e+00
-1.270500e+00 1.282500e-01 0.000000e+00
-1.089000e+00 1.282500e-01 0.000000e+00
-9.075000e-01 1.282500e-01 0.000000e+00
-7.260000e-01 1.282500e-01 0.000000e+00
-1.452000e+00 2.565000e-01 0.000000e+00
-1.270500e+00 2.565000e-01 0.000000e+00
-1.089000e+00 2.565000e-01 0.000000e+00
-9.075000e-01 2.565000e-01 0.000000e+00
-7.260000e-01 2.565000e-01 0.000000e+00
-1.452000e+00 3.847500e-01 0.000000e+00
-1.270500e+00 3.847500e-01 0.000000e+00
-1.089000e+00 3.847500e-01 0.000000e+00
-9.075000e-01 3.847500e-01 0.000000e+00
-7.260000e-01 3.847500e-01 0.000000e+00
-1.452000e+00 5.130000e-01 0.000000e+00
-1.270500e+00 5.130000e-01 0.000000e+00
-1.089000e+00 5.130000e-01 0.000000e+00
-9.075000e-01 5.130000e-01 0.000000e+00
-7.260000e-01 5.130000e-01 0.000000e+00
-7.260000e-01 0.000000e+00 0.000000e+00
-5.445000e-01 0.000000e+00 0.000000e+00
-3.630000e-01 0.000000e+00 0.000000e+00
-1.815000e-01 0.000000e+00 0.000000e+00
0.000000e+00 0.000000e+00 0.000000e+00
-7.260000e-01 1.282500e-01 0.000000e+00
-5.445000e-01 1.282500e-01 0.000000e+00
-3.630000e-01 1.282500e-01 0.000000e+00
-1.815000e-01 1.282500e-01 0.000000e+00
0.000000e+00 1.282500e-01 0.000000e+00
-7.260000e-01 2.565000e-01 0.000000e+00
-5.445000e-01 2.565000e-01 0.000000e+00
-3.630000e-01 2.565000e-01 0.000000e+00
-1.815000e-01 2.565000e-01 0.000000e+00
0.000000e+00 2.565000e-01 0.000000e+00
-7.260000e-01 3.847500e-01 0.000000e+00
-5.445000e-01 3.847500e-01 0.000000e+00
-3.630000e-01 3.847500e-01 0.000000e+00
-1.815000e-01 3.847500e-01 0.000000e+00
0.000000e+00 3.847500e-01 0.000000e+00
-7.260000e-01 5.130000e-01 0.000000e+00
-5.445000e-01 5.130000e-01 0.000000e+00
-3.630000e-01 5.130000e-01 0.000000e+00
-1.815000e-01 5.130000e-01 0.000000e+00
0.000000e+00 5.130000e-01 0.000000e+00
0.000000e+00 0.000000e+00 0.000000e+00
1.815000e-01 0.000000e+00 0.000000e+00
3.630000e-01 0.000000e+00 0.000000e+00
5.445000e-01 0.000000e+00 0.000000e+00
7.260000e-01 0.000000e+00 0.000000e+00
0.000000e+00 1.282500e-01 0.000000e+00
1.815000e-01 1.282500e-01 0.000000e+00
3.630000e-01 1.282500e-01 0.000000e+00
5.445000e-01 1.282500e-01 0.000000e+00
7.260000e-01 1.282500e-01 0.000000e+00
0.000000e+00 2.565000e-01 0.000000e+00
1.815000e-01 2.565000e-01 0.000000e+00
3.630000e-01 2.565000e-01 0.000000e+00
5.445000e-01 2.565000e-01 0.000000e+00
7.260000e-01 2.565000e-01 0.000000e+00
0.000000e+00 3.847500e-01 0.000000e+00
1.815000e-01 3.847500e-01 0.000000e+00
3.630000e-01 3.847500e-01 0.000000e+00
5.445000e-01 3.847500e-01 0.000000e+00
7.260000e-01 3.847500e-01 0.000000e+00
0.000000e+00 5.130000e-01 0.000000e+00
1.815000e-01 5.130000e-01 0.000000e+00
3.630000e-01 5.130000e-01 0.000000e+00
5.445000e-01 5.130000e-01 0.000000e+00
7.260000e-01 5.130000e-01 0.000000e+00
7.260000e-01 0.000000e+00 0.000000e+00
9.075000e-01 0.000000e+00 0.000000e+00
1.089000e+00 0.000000e+00 0.000000e+00
1.270500e+00 0.000000e+00 0.000000e+00
1.452000e+00 0.000000e+00 0.000000e+00
7.260000e-01 1.282500e-01 0.000000e+00
9.075000e-01 1.282500e-01 0.000000e+00
1.089000e+00 1.282500e-01 0.000000e+00
1.270500e+00 1.282500e-01 0.000000e+00
1.452000e+00 1.282500e-01 0.000000e+00
7.260000e-01 2.565000e-01 0.000000e+00
9.075000e-01 2.565000e-01 0.000000e+00
1.089000e+00 2.565000e-01 0.000000e+00
1.270500e+00 2.565000e-01 0.000000e+00
1.452000e+00 2.565000e-01 0.000000e+00
7.260000e-01 3.847500e-01 0.000000e+00
9.075000e-01 3.847500e-01 0.000000e+00
1.089000e+00 3.847500e-01 0.000000e+00
1.270500e+00 3.847500e-01 0.000000e+00
1.452000e+00 3.847500e-01 0.000000e+00
7.260000e-01 5.130000e-01 0.000000e+00
9.075000e-01 5.130000e-01 0.000000e+00
1.089000e+00 5.130000e-01 0.000000e+00
1.270500e+00 5.130000e-01 0.000000e+00
1.452000e+00 5.130000e-01 0.000000e+00
1.452000e+00 0.000000e+00 0.000000e+00
1.633500e+00 0.000000e+00 0.000000e+00
1.815000e+00 0.000000e+00 0.000000e+00
1.996500e+00 0.000000e+00 0.000000e+00
2.178000e+00 0.000000e+00 0.000000e+00
1.452000e+00 1.282500e-01 0.000000e+00
1.633500e+00 1.282500e-01 0.000000e+00
1.815000e+00 1.282500e-01 0.000000e+00
1.996500e+00 1.282500e-01 0.000000e+00
2.178000e+00 1.282500e-01 0.000000e+00
1.452000e+00 2.565000e-01 0.000000e+00
1.633500e+00 2.565000e-01 0.000000e+00
1.815000e+00 2.565000e-01 0.000000e+00
1.996500e+00 2.565000e-01 0.000000e+00
2.178000e+00 2.565000e-01 0.000000e+00
1.452000e+00 3.847500e-01 0.000000e+00
1.633500e+00 3.847500e-01 0.000000e+00
1.815000e+00 3.847500e-01 0.000000e+00
1.996500e+00 3.847500e-01 0.000000e+00
2.178000e+00 3.847500e-01 0.000000e+00
1.452000e+00 5.130000e-01 0.000000e+00
1.633500e+00 5.130000e-01 0.000000e+00
1.815000e+00 5.130000e-01 0.000000e+00
1.996500e+00 5.130000e-01 0.000000e+00
2.178000e+00 5.130000e-01 0.000000e+00
2.178000e+00 0.000000e+00 0.000000e+00
2.359500e+00 0.000000e+00 0.000000e+00
2.541000e+00 0.000000e+00 0.000000e+00
2.722500e+00 0.000000e+00 0.000000e+00
2.904000e+00 0.000000e+00 0.000000e+00
2.178000e+00 1.282500e-01 0.000000e+00
2.359500e+00 1.282500e-01 0.000000e+00
2.541000e+00 1.282500e-01 0.000000e+00
2.722500e+00 1.282500e-01 0.000000e+00
2.904000e+00 1.282500e-01 0.000000e+00
2.178000e+00 2.565000e-01 0.000000e+00
2.359500e+00 2.565000e-01 0.000000e+00
2.541000e+00 2.565000e-01 0.000000e+00
2.722500e+00 2.565000e-01 0.000000e+00
2.904000e+00 2.565000e-01 0.000000e+00
2.178000e+00 3.847500e-01 0.000000e+00
2.359500e+00 3.847500e-01 0.000000e+00
2.541000e+00 3.847500e-01 0.000000e+00
2.722500e+00 3.847500e-01 0.000000e+00
2.904000e+00 3.847500e-01 0.000000e+00
2.178000e+00 5.130000e-01 0.000000e+00
2.359500e+00 5.130000e-01 0.000000e+00
2.541000e+00 5.130000e-01 0.000000e+00
2.722500e+00 5.130000e-01 0.000000e+00
2.904000e+00 5.130000e-01 0.000000e+00
2.904000e+00 0.000000e+00 0.000000e+00
3.085500e+00 0.000000e+00 0.000000e+00
3.267000e+00 0.000000e+00 0.000000e+00
3.448500e+00 0.000000e+00 0.000000e+00
3.630000e+00 0.000000e+00 0.000000e+00
2.904000e+00 1.282500e-01 0.000000e+00
3.085500e+00 1.282500e-01 0.000000e+00
3.267000e+00 1.282500e-01 0.000000e+00
3.448500e+00 1.282500e-01 0.000000e+00
3.630000e+00 1.282500e-01 0.000000e+00
2.904000e+00 2.565000e-01 0.000000e+00
3.085500e+00 2.565000e-01 0.000000e+00
3.267000e+00 2.565000e-01 0.000000e+00
3.448500e+00 2.565000e-01 0.000000e+00
3.630000e+00 2.565000e-01 0.000000e+00
2.904000e+00 3.847500e-01 0.000000e+00
3.085500e+00 3.847500e-01 0.000000e+00
3.267000e+00 3.847500e-01 0.000000e+00
3.448500e+00 3.847500e-01 0.000000e+00
3.630000e+00 3.847500e-01 0.000000e+00
2.904000e+00 5.130000e-01 0.000000e+00
[...]
<PointData>
<DataArray type="Float32" Name="V1" format="ascii">
0.000000e+00
0.000000e+00
0.000000e+00
0.000000e+00
0.000000e+00
1.264110e-02
1.103340e-02
9.648330e-03
8.485910e-03
7.546140e-03
2.028400e-02
1.822610e-02
1.638980e-02
1.477510e-02
1.338200e-02
2.292870e-02
2.157820e-02
2.022450e-02
1.886760e-02
1.750740e-02
2.057510e-02
2.108950e-02
2.115230e-02
2.076330e-02
1.992260e-02
0.000000e+00
0.000000e+00
0.000000e+00
0.000000e+00
0.000000e+00
7.546140e-03
6.488560e-03
5.681060e-03
5.123640e-03
4.816300e-03
1.338200e-02
1.181040e-02
1.057340e-02
9.670930e-03
9.102950e-03
1.750740e-02
1.596560e-02
1.467710e-02
1.364190e-02
1.286000e-02
1.992260e-02
1.895410e-02
1.799200e-02
1.703640e-02
1.608730e-02
0.000000e+00
0.000000e+00
0.000000e+00
0.000000e+00
0.000000e+00
4.816300e-03
4.555080e-03
4.375330e-03
4.277040e-03
4.260210e-03
9.102950e-03
8.614500e-03
8.252910e-03
8.018200e-03
7.910370e-03
1.286000e-02
1.217820e-02
1.163270e-02
1.122350e-02
1.095050e-02
1.608730e-02
1.524630e-02
1.451480e-02
1.389290e-02
1.338050e-02
0.000000e+00
0.000000e+00
0.000000e+00
0.000000e+00
0.000000e+00
4.260210e-03
3.827670e-03
4.047140e-03
4.918620e-03
6.442090e-03
7.910370e-03
6.935000e-03
7.129380e-03
8.493520e-03
1.102740e-02
1.095050e-02
9.321970e-03
9.246710e-03
1.072470e-02
1.375600e-02
1.338050e-02
1.098860e-02
1.039910e-02
1.161220e-02
1.462770e-02
0.000000e+00
0.000000e+00
0.000000e+00
0.000000e+00
0.000000e+00
6.442090e-03
5.893330e-03
3.628550e-03
-3.522610e-04
-6.049100e-03
1.102740e-02
9.274630e-03
4.867470e-03
-2.194070e-03
-1.191000e-02
1.375600e-02
1.014390e-02
3.716750e-03
-5.525440e-03
-1.758270e-02
1.462770e-02
8.501100e-03
1.764090e-04
-1.034640e-02
-2.306720e-02
0.000000e+00
0.000000e+00
0.000000e+00
0.000000e+00
0.000000e+00
-6.049100e-03
-7.844120e-03
-1.004070e-02
-1.263870e-02
-1.563830e-02
-1.191000e-02
-1.428960e-02
-1.744710e-02
-2.138260e-02
-2.609610e-02
-1.758270e-02
-1.933640e-02
-2.221930e-02
-2.623170e-02
-3.137330e-02
-2.306720e-02
-2.298450e-02
-2.435740e-02
-2.718590e-02
-3.147000e-02
0.000000e+00
0.000000e+00
0.000000e+00
0.000000e+00
0.000000e+00
-1.563830e-02
-1.568930e-02
-1.443900e-02
-1.188760e-02
-8.035050e-03
-2.609610e-02
-2.568250e-02
-2.331000e-02
-1.897850e-02
-1.268810e-02
-3.137330e-02
-2.997980e-02
-2.661300e-02
-2.127270e-02
-1.395910e-02
-3.147000e-02
-2.858120e-02
-2.434790e-02
-1.877020e-02
-1.184810e-02
0.000000e+00
0.000000e+00
0.000000e+00
0.000000e+00
0.000000e+00
-8.035050e-03
-6.065290e-03
-4.041110e-03
-1.962490e-03
1.705650e-04
-1.268810e-02
-9.397730e-03
-6.056460e-03
-2.664270e-03
7.788420e-04
-1.395910e-02
-9.997320e-03
-6.046070e-03
-2.105350e-03
1.824830e-03
-1.184810e-02
-7.864050e-03
-4.009920e-03
-2.857270e-04
3.308530e-03
0.000000e+00
0.000000e+00
0.000000e+00
0.000000e+00
0.000000e+00
1.705650e-04
2.270260e-03
3.939870e-03
5.179400e-03
5.988830e-03
7.788420e-04
4.244380e-03
7.016320e-03
9.094660e-03
1.047940e-02
1.824830e-03
5.922370e-03
9.229360e-03
1.174580e-02
1.347170e-02
3.308530e-03
7.304220e-03
1.057900e-02
1.313280e-02
1.496570e-02
0.000000e+00
0.000000e+00
0.000000e+00
0.000000e+00
0.000000e+00
5.988830e-03
6.750440e-03
7.493690e-03
8.218590e-03
8.925140e-03
1.047940e-02
1.181290e-02
1.308610e-02
1.429890e-02
1.545150e-02
1.347170e-02
1.518740e-02
1.677720e-02
1.824100e-02
1.957900e-02
1.496570e-02
1.687390e-02
1.856700e-02
2.004490e-02
2.130770e-02
2.057510e-02
2.108950e-02
2.115230e-02
2.076330e-02
1.992260e-02
2.078850e-02
2.097890e-02
2.099780e-02
2.084530e-02
2.052130e-02
2.103660e-02
2.096870e-02
2.091550e-02
2.087700e-02
2.085310e-02
2.131930e-02
2.105910e-02
2.090540e-02
2.085840e-02
2.091800e-02
2.163650e-02
2.124990e-02
2.096760e-02
2.078970e-02
2.071610e-02
1.992260e-02
1.895410e-02
1.799200e-02
1.703640e-02
1.608730e-02
2.052130e-02
2.004910e-02
1.949450e-02
1.885740e-02
1.813800e-02
2.085310e-02
2.073270e-02
2.048550e-02
2.011140e-02
1.961040e-02
2.091800e-02
2.100500e-02
2.096510e-02
2.079830e-02
2.050450e-02
2.071610e-02
2.086590e-02
2.093320e-02
2.091810e-02
2.082040e-02
1.608730e-02
1.524630e-02
1.451480e-02
1.389290e-02
1.338050e-02
1.813800e-02
1.732050e-02
1.655850e-02
1.585190e-02
1.520080e-02
1.961040e-02
1.883050e-02
1.808240e-02
1.736600e-02
1.668130e-02
2.050450e-02
1.977630e-02
1.908640e-02
1.843500e-02
1.782200e-02
2.082040e-02
2.015780e-02
1.957070e-02
1.905910e-02
1.862300e-02
1.338050e-02
1.098860e-02
1.039910e-02
1.161220e-02
1.462770e-02
1.520080e-02
1.210210e-02
1.109120e-02
1.216790e-02
1.533230e-02
1.668130e-02
1.301550e-02
1.168970e-02
1.270390e-02
1.605820e-02
1.782200e-02
1.372860e-02
1.219470e-02
1.322030e-02
1.680540e-02
1.862300e-02
1.424150e-02
1.260610e-02
1.371690e-02
1.757380e-02
1.462770e-02
8.501100e-03
1.764090e-04
-1.034640e-02
-2.306720e-02
1.533230e-02
7.156790e-03
-2.106090e-03
-1.245630e-02
-2.389380e-02
1.605820e-02
6.646970e-03
-3.021370e-03
-1.294680e-02
-2.312930e-02
1.680540e-02
6.971640e-03
-2.569440e-03
-1.181790e-02
-2.077360e-02
1.757380e-02
8.130800e-03
-7.502990e-04
-9.069520e-03
-1.682690e-02
-2.306720e-02
-2.298450e-02
-2.435740e-02
-2.718590e-02
-3.147000e-02
-2.389380e-02
-2.156040e-02
-2.164190e-02
-2.413830e-02
-2.904950e-02
-2.312930e-02
-1.880630e-02
-1.763960e-02
-1.962930e-02
-2.477520e-02
-2.077360e-02
-1.472210e-02
-1.235050e-02
-1.365890e-02
-1.864720e-02
-1.682690e-02
-9.307790e-03
-5.774530e-03
-6.227080e-03
-1.066540e-02
-3.147000e-02
-2.858120e-02
-2.434790e-02
-1.877020e-02
-1.184810e-02
-2.904950e-02
-2.737700e-02
-2.375150e-02
-1.817310e-02
-1.064160e-02
-2.477520e-02
-2.427670e-02
-2.135150e-02
-1.599980e-02
-8.221480e-03
-1.864720e-02
-1.928010e-02
-1.714780e-02
-1.225030e-02
-4.587760e-03
-1.066540e-02
-1.238730e-02
-1.114040e-02
-6.924790e-03
2.595630e-04
-1.184810e-02
-7.864050e-03
-4.009920e-03
-2.857270e-04
3.308530e-03
-1.064160e-02
-6.854050e-03
-3.111020e-03
5.874890e-04
4.241470e-03
-8.221480e-03
-4.773620e-03
-1.317540e-03
2.146760e-03
5.619290e-03
-4.587760e-03
-1.622770e-03
1.370510e-03
4.392090e-03
7.441970e-03
2.595630e-04
2.598500e-03
4.953140e-03
7.323480e-03
9.709530e-03
3.308530e-03
7.304220e-03
1.057900e-02
1.313280e-02
1.496570e-02
4.241470e-03
8.446270e-03
1.179620e-02
1.429120e-02
1.593140e-02
5.619290e-03
9.818780e-03
1.307700e-02
1.539410e-02
1.676990e-02
7.441970e-03
1.142170e-02
1.442150e-02
1.644130e-02
1.748120e-02
9.709530e-03
1.325510e-02
1.582960e-02
1.743300e-02
1.806520e-02
1.496570e-02
1.687390e-02
1.856700e-02
2.004490e-02
2.130770e-02
1.593140e-02
1.779270e-02
1.946690e-02
2.095380e-02
2.225360e-02
1.676990e-02
1.854900e-02
2.016090e-02
2.160580e-02
2.288370e-02
1.748120e-02
1.914260e-02
2.064920e-02
2.200100e-02
2.319790e-02
1.806520e-02
1.957370e-02
2.093170e-02
2.213920e-02
2.319630e-02
2.163650e-02
2.124990e-02
2.096760e-02
2.078970e-02
2.071610e-02
2.197900e-02
2.159990e-02
2.130980e-02
2.110870e-02
2.099660e-02
2.233590e-02
2.198880e-02
2.171210e-02
2.150570e-02
2.136980e-02
2.270730e-02
2.241650e-02
2.217430e-02
2.198070e-02
2.183560e-02
2.309330e-02
2.288310e-02
2.269650e-02
2.253350e-02
2.239410e-02
2.071610e-02
2.086590e-02
2.093320e-02
2.091810e-02
2.082040e-02
2.099660e-02
2.103050e-02
2.105330e-02
2.106480e-02
2.106520e-02
2.136980e-02
2.129980e-02
2.127440e-02
2.129370e-02
2.135760e-02
2.183560e-02
2.167370e-02
2.159670e-02
2.160460e-02
2.169750e-02
2.239410e-02
2.215220e-02
2.202010e-02
2.199770e-02
2.208490e-02
2.082040e-02
2.015780e-02
1.957070e-02
1.905910e-02
1.862300e-02
2.106520e-02
2.034440e-02
1.982650e-02
1.951130e-02
1.939890e-02
2.135760e-02
2.057730e-02
2.011470e-02
1.996990e-02
2.014290e-02
2.169750e-02
2.085630e-02
2.043540e-02
2.043500e-02
2.085490e-02
2.208490e-02
2.118150e-02
2.078860e-02
2.090640e-02
2.153480e-02
1.862300e-02
1.424150e-02
1.260610e-02
1.371690e-02
1.757380e-02
1.939890e-02
1.506750e-02
1.348100e-02
1.463960e-02
1.854310e-02
2.014290e-02
1.603480e-02
1.457760e-02
1.577140e-02
1.961600e-02
2.085490e-02
1.714340e-02
1.589590e-02
1.711220e-02
2.079260e-02
2.153480e-02
1.839330e-02
1.743570e-02
1.866220e-02
2.207270e-02
1.757380e-02
8.130800e-03
-7.502990e-04
-9.069520e-03
-1.682690e-02
1.854310e-02
1.106930e-02
3.574600e-03
-3.941110e-03
-1.147780e-02
1.961600e-02
1.449000e-02
8.600690e-03
1.948170e-03
-5.467580e-03
2.079260e-02
1.839270e-02
1.432800e-02
8.598320e-03
1.203770e-03
2.207270e-02
2.277750e-02
2.075640e-02
1.600930e-02
8.536260e-03
-1.682690e-02
-9.307790e-03
-5.774530e-03
-6.227080e-03
-1.066540e-02
-1.147780e-02
-3.959130e-03
-3.224710e-05
3.028680e-04
-2.953790e-03
-5.467580e-03
1.747860e-03
6.013890e-03
7.330510e-03
5.697730e-03
1.203770e-03
7.813180e-03
1.236390e-02
1.485590e-02
1.528910e-02
8.536260e-03
1.423680e-02
1.901770e-02
2.287890e-02
2.582040e-02
-1.066540e-02
-1.238730e-02
-1.114040e-02
-6.924790e-03
2.595630e-04
-2.953790e-03
-4.908150e-03
-4.184610e-03
-7.831790e-04
5.296150e-03
5.697730e-03
3.805370e-03
4.015510e-03
6.328150e-03
1.074330e-02
1.528910e-02
1.375330e-02
1.346000e-02
1.440920e-02
1.660100e-02
2.582040e-02
2.493560e-02
2.414870e-02
2.346000e-02
2.286920e-02
2.595630e-04
2.598500e-03
4.953140e-03
7.323480e-03
9.709530e-03
5.296150e-03
7.059290e-03
8.822230e-03
1.058500e-02
1.234750e-02
1.074330e-02
1.173570e-02
1.279250e-02
1.391360e-02
1.509910e-02
1.660100e-02
1.662780e-02
1.686390e-02
1.730950e-02
1.796440e-02
2.286920e-02
2.173540e-02
2.103660e-02
2.077250e-02
2.094330e-02
9.709530e-03
1.325510e-02
1.582960e-02
1.743300e-02
1.806520e-02
1.234750e-02
1.519380e-02
1.718870e-02
1.833220e-02
1.862420e-02
1.509910e-02
1.720290e-02
1.859170e-02
1.926560e-02
1.922440e-02
1.796440e-02
1.928240e-02
2.003860e-02
2.023310e-02
1.986570e-02
2.094330e-02
2.143230e-02
2.152940e-02
2.123470e-02
2.054830e-02
1.806520e-02
1.957370e-02
2.093170e-02
2.213920e-02
2.319630e-02
1.862420e-02
2.025300e-02
2.158070e-02
2.260730e-02
2.333280e-02
1.922440e-02
2.094750e-02
2.223000e-02
2.307190e-02
2.347320e-02
1.986570e-02
2.165730e-02
2.287980e-02
2.353320e-02
2.361750e-02
2.054830e-02
2.238230e-02
2.352990e-02
2.399110e-02
2.376590e-02
2.309330e-02
2.288310e-02
2.269650e-02
2.253350e-02
2.239410e-02
2.348320e-02
2.331460e-02
2.316500e-02
2.303460e-02
2.292320e-02
2.386930e-02
2.373540e-02
2.361790e-02
2.351690e-02
2.343240e-02
2.425160e-02
2.414560e-02
2.405530e-02
2.398060e-02
2.392170e-02
2.463000e-02
2.454510e-02
2.447700e-02
2.442570e-02
2.439120e-02
2.239410e-02
2.215220e-02
2.202010e-02
2.199770e-02
2.208490e-02
2.292320e-02
2.267540e-02
2.252760e-02
2.248000e-02
2.253240e-02
2.343240e-02
2.318970e-02
2.303780e-02
2.297690e-02
2.300690e-02
2.392170e-02
2.369510e-02
2.355070e-02
2.348840e-02
2.350830e-02
2.439120e-02
2.419180e-02
2.406620e-02
2.401450e-02
2.403660e-02
2.208490e-02
2.118150e-02
2.078860e-02
2.090640e-02
2.153480e-02
2.253240e-02
2.173000e-02
2.137390e-02
2.146400e-02
2.200040e-02
2.300690e-02
2.232230e-02
2.201610e-02
2.208850e-02
2.253920e-02
2.350830e-02
2.295820e-02
2.271530e-02
2.277960e-02
2.315110e-02
2.403660e-02
2.363780e-02
2.347150e-02
2.353760e-02
2.383620e-02
2.153480e-02
1.839330e-02
1.743570e-02
1.866220e-02
2.207270e-02
2.200040e-02
1.980300e-02
1.917050e-02
2.010290e-02
2.260030e-02
2.253920e-02
2.114120e-02
2.079930e-02
2.151350e-02
2.328390e-02
2.315110e-02
2.240780e-02
2.232210e-02
2.289410e-02
2.412360e-02
2.383620e-02
2.360290e-02
2.373900e-02
2.424450e-02
2.511940e-02
2.207270e-02
2.277750e-02
2.075640e-02
1.600930e-02
8.536260e-03
2.260030e-02
2.637110e-02
2.704160e-02
2.461180e-02
1.908160e-02
2.328390e-02
2.882680e-02
3.149120e-02
3.127710e-02
2.818440e-02
2.412360e-02
3.014470e-02
3.410530e-02
3.600530e-02
3.584490e-02
2.511940e-02
3.032470e-02
3.488380e-02
3.879650e-02
4.206290e-02
8.536260e-03
1.423680e-02
1.901770e-02
2.287890e-02
2.582040e-02
1.908160e-02
2.364360e-02
2.807370e-02
3.237180e-02
3.653780e-02
2.818440e-02
3.216690e-02
3.636430e-02
4.077650e-02
4.540360e-02
3.584490e-02
3.980670e-02
4.388940e-02
4.809300e-02
5.241760e-02
4.206290e-02
4.656290e-02
5.064910e-02
5.432140e-02
5.757990e-02
2.582040e-02
2.493560e-02
2.414870e-02
2.346000e-02
2.286920e-02
3.653780e-02
3.483180e-02
3.270850e-02
3.016770e-02
2.720950e-02
4.540360e-02
4.269420e-02
3.936940e-02
3.542920e-02
3.087360e-02
5.241760e-02
4.852260e-02
4.413150e-02
3.924450e-02
3.386150e-02
5.757990e-02
5.231700e-02
4.699490e-02
4.161360e-02
3.617310e-02
2.286920e-02
2.173540e-02
2.103660e-02
2.077250e-02
2.094330e-02
2.720950e-02
2.591850e-02
2.496180e-02
2.433960e-02
2.405170e-02
3.087360e-02
2.951670e-02
2.836600e-02
2.742140e-02
2.668310e-02
3.386150e-02
3.253010e-02
3.124900e-02
3.001810e-02
2.883750e-02
3.617310e-02
3.495870e-02
3.361090e-02
3.212960e-02
3.051480e-02
2.094330e-02
2.143230e-02
2.152940e-02
2.123470e-02
2.054830e-02
2.405170e-02
2.350560e-02
2.286910e-02
2.214220e-02
2.132500e-02
2.668310e-02
2.529800e-02
2.408030e-02
2.303000e-02
2.214690e-02
2.883750e-02
2.680970e-02
2.516320e-02
2.389800e-02
2.301420e-02
3.051480e-02
2.804040e-02
2.611760e-02
2.474630e-02
2.392670e-02
2.054830e-02
2.238230e-02
2.352990e-02
2.399110e-02
2.376590e-02
2.132500e-02
2.307860e-02
2.411640e-02
2.443860e-02
2.404500e-02
2.214690e-02
2.377340e-02
2.467610e-02
2.485500e-02
2.431000e-02
2.301420e-02
2.446690e-02
2.520890e-02
2.524020e-02
2.456070e-02
2.392670e-02
2.515900e-02
2.571490e-02
2.559430e-02
2.479730e-02
2.463000e-02
2.454510e-02
2.447700e-02
2.442570e-02
2.439120e-02
2.499690e-02
2.493550e-02
2.489100e-02
2.486340e-02
2.485280e-02
2.534870e-02
2.531280e-02
2.529270e-02
2.528840e-02
2.530000e-02
2.568540e-02
2.567700e-02
2.568210e-02
2.570070e-02
2.573270e-02
2.600690e-02
2.602820e-02
2.605930e-02
2.610020e-02
2.615090e-02
2.439120e-02
2.419180e-02
2.406620e-02
2.401450e-02
2.403660e-02
2.485280e-02
2.467570e-02
2.457210e-02
2.454210e-02
2.458550e-02
2.530000e-02
2.514890e-02
2.506850e-02
2.505890e-02
2.511990e-02
2.573270e-02
2.561120e-02
2.555530e-02
2.556490e-02
2.564000e-02
2.615090e-02
2.606280e-02
2.603260e-02
2.606020e-02
2.614560e-02
2.403660e-02
2.363780e-02
2.347150e-02
2.353760e-02
2.383620e-02
2.458550e-02
2.428090e-02
2.418830e-02
2.430780e-02
2.463930e-02
2.511990e-02
2.490390e-02
2.487630e-02
2.503690e-02
2.538590e-02
2.564000e-02
2.550700e-02
2.553540e-02
2.572510e-02
2.607620e-02
2.614560e-02
2.609010e-02
2.616570e-02
2.637230e-02
2.671010e-02
2.383620e-02
2.360290e-02
2.373900e-02
2.424450e-02
2.511940e-02
2.463930e-02
2.460970e-02
2.489530e-02
2.549590e-02
2.641160e-02
2.538590e-02
2.554510e-02
2.595770e-02
2.662380e-02
2.754320e-02
2.607620e-02
2.640910e-02
2.692630e-02
2.762800e-02
2.851420e-02
2.671010e-02
2.720150e-02
2.780110e-02
2.850870e-02
2.932450e-02
2.511940e-02
3.032470e-02
3.488380e-02
3.879650e-02
4.206290e-02
2.641160e-02
3.035840e-02
3.434880e-02
3.838270e-02
4.246020e-02
2.754320e-02
3.051480e-02
3.391110e-02
3.773210e-02
4.197780e-02
2.851420e-02
3.079380e-02
3.357070e-02
3.684470e-02
4.061600e-02
2.932450e-02
3.119550e-02
3.332740e-02
3.572040e-02
3.837450e-02
4.206290e-02
4.656290e-02
5.064910e-02
5.432140e-02
5.757990e-02
4.246020e-02
4.773880e-02
5.211790e-02
5.559750e-02
5.817770e-02
4.197780e-02
4.742820e-02
5.175640e-02
5.496250e-02
5.704650e-02
4.061600e-02
4.563110e-02
4.956450e-02
5.241630e-02
5.418640e-02
3.837450e-02
4.234750e-02
4.554240e-02
4.795900e-02
4.959740e-02
5.757990e-02
5.231700e-02
4.699490e-02
4.161360e-02
3.617310e-02
5.817770e-02
5.319930e-02
4.825460e-02
4.334350e-02
3.846610e-02
5.704650e-02
5.279160e-02
4.854500e-02
4.430660e-02
4.007640e-02
5.418640e-02
5.109410e-02
4.786620e-02
4.450280e-02
4.100370e-02
4.959740e-02
4.810670e-02
4.621830e-02
4.393210e-02
4.124820e-02
3.617310e-02
3.495870e-02
3.361090e-02
3.212960e-02
3.051480e-02
3.846610e-02
3.660650e-02
3.476750e-02
3.294900e-02
3.115120e-02
4.007640e-02
3.773350e-02
3.554400e-02
3.350800e-02
3.162550e-02
4.100370e-02
3.833950e-02
3.594040e-02
3.380640e-02
3.193750e-02
4.124820e-02
3.842470e-02
3.595680e-02
3.384440e-02
3.208750e-02
3.051480e-02
2.804040e-02
2.611760e-02
2.474630e-02
2.392670e-02
3.115120e-02
2.896460e-02
2.723240e-02
2.595480e-02
2.513170e-02
3.162550e-02
2.972660e-02
2.818990e-02
2.701520e-02
2.620270e-02
3.193750e-02
3.032660e-02
2.899000e-02
2.792770e-02
2.713960e-02
3.208750e-02
3.076460e-02
2.963280e-02
2.869210e-02
2.794250e-02
2.392670e-02
2.515900e-02
2.571490e-02
2.559430e-02
2.479730e-02
2.513170e-02
2.576430e-02
2.598070e-02
2.578100e-02
2.516500e-02
2.620270e-02
2.630230e-02
2.622330e-02
2.596560e-02
2.552930e-02
2.713960e-02
2.677290e-02
2.644250e-02
2.614830e-02
2.589020e-02
2.794250e-02
2.717630e-02
2.663840e-02
2.632890e-02
2.624770e-02
2.600690e-02
2.602820e-02
2.605930e-02
2.610020e-02
2.615090e-02
2.630990e-02
2.635940e-02
2.641570e-02
2.647860e-02
2.654830e-02
2.659390e-02
2.667010e-02
2.674990e-02
2.683360e-02
2.692100e-02
2.685910e-02
2.696010e-02
2.706210e-02
2.716500e-02
2.726890e-02
2.710540e-02
2.722960e-02
2.735210e-02
2.747290e-02
2.759200e-02
2.615090e-02
2.606280e-02
2.603260e-02
2.606020e-02
2.614560e-02
2.654830e-02
2.649200e-02
2.648620e-02
2.653100e-02
2.662620e-02
2.692100e-02
2.689380e-02
2.691050e-02
2.697100e-02
2.707550e-02
2.726890e-02
2.726820e-02
2.730530e-02
2.738040e-02
2.749330e-02
2.759200e-02
2.761520e-02
2.767080e-02
2.775900e-02
2.787970e-02
2.614560e-02
2.609010e-02
2.616570e-02
2.637230e-02
2.671010e-02
2.662620e-02
2.662890e-02
2.674160e-02
2.696440e-02
2.729710e-02
2.707550e-02
2.712690e-02
2.727050e-02
2.750630e-02
2.783440e-02
2.749330e-02
2.758390e-02
2.775220e-02
2.799830e-02
2.832210e-02
2.787970e-02
2.800000e-02
2.818680e-02
2.844020e-02
2.876020e-02
2.671010e-02
2.720150e-02
2.780110e-02
2.850870e-02
2.932450e-02
2.729710e-02
2.783900e-02
2.848070e-02
2.922220e-02
3.006340e-02
2.783440e-02
2.839300e-02
2.904750e-02
2.979770e-02
3.064390e-02
2.832210e-02
2.886350e-02
2.950130e-02
3.023540e-02
3.106600e-02
2.876020e-02
2.925050e-02
2.984220e-02
3.053530e-02
3.132980e-02
2.932450e-02
3.119550e-02
3.332740e-02
3.572040e-02
3.837450e-02
3.006340e-02
3.173950e-02
3.359970e-02
3.564390e-02
3.787200e-02
3.064390e-02
3.215730e-02
3.378870e-02
3.553780e-02
3.740480e-02
3.106600e-02
3.244880e-02
3.389430e-02
3.540230e-02
3.697300e-02
3.132980e-02
3.261400e-02
3.391650e-02
3.523730e-02
3.657640e-02
3.837450e-02
4.234750e-02
4.554240e-02
4.795900e-02
4.959740e-02
3.787200e-02
4.103650e-02
4.361150e-02
4.559720e-02
4.699340e-02
3.740480e-02
3.990160e-02
4.195220e-02
4.355660e-02
4.471470e-02
3.697300e-02
3.894300e-02
4.056440e-02
4.183710e-02
4.276120e-02
3.657640e-02
3.816060e-02
3.944800e-02
4.043880e-02
4.113290e-02
4.959740e-02
4.810670e-02
4.621830e-02
4.393210e-02
4.124820e-02
4.699340e-02
4.591970e-02
4.448400e-02
4.268630e-02
4.052670e-02
4.471470e-02
4.396410e-02
4.289060e-02
4.149420e-02
3.977500e-02
4.276120e-02
4.223980e-02
4.143800e-02
4.035580e-02
3.899330e-02
4.113290e-02
4.074680e-02
4.012620e-02
3.927110e-02
3.818150e-02
4.124820e-02
3.842470e-02
3.595680e-02
3.384440e-02
3.208750e-02
4.052670e-02
3.809980e-02
3.593510e-02
3.403270e-02
3.239260e-02
3.977500e-02
3.771140e-02
3.583140e-02
3.413500e-02
3.262230e-02
3.899330e-02
3.725950e-02
3.564550e-02
3.415120e-02
3.277670e-02
3.818150e-02
3.674420e-02
3.537750e-02
3.408130e-02
3.285570e-02
3.208750e-02
3.076460e-02
2.963280e-02
2.869210e-02
2.794250e-02
3.239260e-02
3.113220e-02
3.004360e-02
2.912690e-02
2.838200e-02
3.262230e-02
3.142060e-02
3.037250e-02
2.947820e-02
2.873750e-02
3.277670e-02
3.162990e-02
3.061960e-02
2.974590e-02
2.900880e-02
3.285570e-02
3.176000e-02
3.078480e-02
2.993020e-02
2.919610e-02
2.794250e-02
2.717630e-02
2.663840e-02
2.632890e-02
2.624770e-02
2.838200e-02
2.760980e-02
2.703580e-02
2.666000e-02
2.648240e-02
2.873750e-02
2.798140e-02
2.738930e-02
2.696110e-02
2.669680e-02
2.900880e-02
2.829120e-02
2.769900e-02
2.723220e-02
2.689090e-02
2.919610e-02
2.853910e-02
2.796490e-02
2.747350e-02
2.706480e-02
2.710540e-02
2.722960e-02
2.735210e-02
2.747290e-02
2.759200e-02
2.733260e-02
2.747170e-02
2.760870e-02
2.774360e-02
2.787640e-02
2.754220e-02
2.769410e-02
2.784310e-02
2.798940e-02
2.813300e-02
2.773410e-02
2.789670e-02
2.805550e-02
2.821050e-02
2.836180e-02
2.790840e-02