<?xml version="1.0"?>
<VTKFile type="UnstructuredGrid" version="0.1" byte_order="LittleEndian" compressor="vtkZLibDataCompressor">
<UnstructuredGrid>
<Piece NumberOfPoints="2500" NumberOfCells="1600">
<Points>
<DataArray type="Float32" NumberOfComponents="3" format="ascii">
-3.630000e+00 0.000000e+00 0.000000e+00
-3.448500e+00 0.000000e+00 0.000000e+00
-3.267000e+00 0.000000e+00 0.000000e+00
-3.085500e+00 0.000000e+00 0.000000e+00
-2.904000e+00 0.000000e+00 0.000000e+00
-3.630000e+00 1.282500e-01 0.000000e+00
-3.448500e+00 1.282500e-01 0.000000e+00
-3.267000e+00 1.282500e-01 0.000000e+00
-3.085500e+00 1.282500e-01 0.000000e+00
-2.904000e+00 1.282500e-01 0.000000e+00
-3.630000e+00 2.565000e-01 0.000000e+00
-3.448500e+00 2.565000e-01 0.000000e+00
-3.267000e+00 2.565000e-01 0.000000e+00
-3.085500e+00 2.565000e-01 0.000000e+00
-2.904000e+00 2.565000e-01 0.000000e+00
-3.630000e+00 3.847500e-01 0.000000e+00
-3.448500e+00 3.847500e-01 0.000000e+00
-3.267000e+00 3.847500e-01 0.000000e+00
-3.085500e+00 3.847500e-01 0.000000e+00
-2.904000e+00 3.847500e-01 0.000000e+00
-3.630000e+00 5.130000e-01 0.000000e+00
-3.448500e+00 5.130000e-01 0.000000e+00
-3.267000e+00 5.130000e-01 0.000000e+00
-3.085500e+00 5.130000e-01 0.000000e+00
-2.904000e+00 5.130000e-01 0.000000e+00
-2.904000e+00 0.000000e+00 0.000000e+00
-2.722500e+00 0.000000e+00 0.000000e+00
-2.541000e+00 0.000000e+00 0.000000e+00
-2.359500e+00 0.000000e+00 0.000000e+00
-2.178000e+00 0.000000e+00 0.000000e+00
-2.904000e+00 1.282500e-01 0.000000e+00
-2.722500e+00 1.282500e-01 0.000000e+00
-2.541000e+00 1.282500e-01 0.000000e+00
-2.359500e+00 1.282500e-01 0.000000e+00
-2.178000e+00 1.282500e-01 0.000000e+00
-2.904000e+00 2.565000e-01 0.000000e+00
-2.722500e+00 2.565000e-01 0.000000e+00
-2.541000e+00 2.565000e-01 0.000000e+00
-2.359500e+00 2.565000e-01 0.000000e+00
-2.178000e+00 2.565000e-01 0.000000e+00
-2.904000e+00 3.847500e-01 0.000000e+00
-2.722500e+00 3.847500e-01 0.000000e+00
-2.541000e+00 3.847500e-01 0.000000e+00
-2.359500e+00 3.847500e-01 0.000000e+00
-2.178000e+00 3.847500e-01 0.000000e+00
-2.904000e+00 5.130000e-01 0.000000e+00
-2.722500e+00 5.130000e-01 0.000000e+00
-2.541000e+00 5.130000e-01 0.000000e+00
-2.359500e+00 5.130000e-01 0.000000e+00
-2.178000e+00 5.130000e-01 0.000000e+00
-2.178000e+00 0.000000e+00 0.000000e+00
-1.996500e+00 0.000000e+00 0.000000e+00
-1.815000e+00 0.000000e+00 0.000000e+00
-1.633500e+00 0.000000e+00 0.000000e+00
-1.452000e+00 0.000000e+00 0.000000e+00
-2.178000e+00 1.282500e-01 0.000000e+00
-1.996500e+00 1.282500e-01 0.000000e+00
-1.815000e+00 1.282500e-01 0.000000e+00
-1.633500e+00 1.282500e-01 0.000000e+00
-1.452000e+00 1.282500e-01 0.000000e+00
-2.178000e+00 2.565000e-01 0.000000e+00
-1.996500e+00 2.565000e-01 0.000000e+00
-1.815000e+00 2.565000e-01 0.000000e+00
-1.633500e+00 2.565000e-01 0.000000e+00
-1.452000e+00 2.565000e-01 0.000000e+00
-2.178000e+00 3.847500e-01 0.000000e+00
-1.996500e+00 3.847500e-01 0.000000e+00
-1.815000e+00 3.847500e-01 0.000000e+00
-1.633500e+00 3.847500e-01 0.000000e+00
-1.452000e+00 3.847500e-01 0.000000e+00
-2.178000e+00 5.130000e-01 0.000000e+00
-1.996500e+00 5.130000e-01 0.000000e+00
-1.815000e+00 5.130000e-01 0.000000e+00
-1.633500e+00 5.130000e-01 0.000000e+00
-1.452000e+00 5.130000e-01 0.000000e+00
-1.452000e+00 0.000000e+00 0.000000e+00
-1.270500e+00 0.000000e+00 0.000000e+00
-1.089000e+00 0.000000e+00 0.000000e+00
-9.075000e-01 0.000000e+00 0.000000e+00
-7.260000e-01 0.000000e+00 0.000000e+00
-1.452000e+00 1.282500e-01 0.000000e+00
-1.270500e+00 1.282500e-01 0.000000e+00
-1.089000e+00 1.282500e-01 0.000000e+00
-9.075000e-01 1.282500e-01 0.000000e+00
-7.260000e-01 1.282500e-01 0.000000e+00
-1.452000e+00 2.565000e-01 0.000000e+00
-1.270500e+00 2.565000e-01 0.000000e+00
-1.089000e+00 2.565000e-01 0.000000e+00
-9.075000e-01 2.565000e-01 0.000000e+00
-7.260000e-01 2.565000e-01 0.000000e+00
-1.452000e+00 3.847500e-01 0.000000e+00
-1.270500e+00 3.847500e-01 0.000000e+00
-1.089000e+00 3.847500e-01 0.000000e+00
-9.075000e-01 3.847500e-01 0.000000e+00
-7.260000e-01 3.847500e-01 0.000000e+00
-1.452000e+00 5.130000e-01 0.000000e+00
-1.270500e+00 5.130000e-01 0.000000e+00
-1.089000e+00 5.130000e-01 0.000000e+00
-9.075000e-01 5.130000e-01 0.000000e+00
-7.260000e-01 5.130000e-01 0.000000e+00
-7.260000e-01 0.000000e+00 0.000000e+00
-5.445000e-01 0.000000e+00 0.000000e+00
-3.630000e-01 0.000000e+00 0.000000e+00
-1.815000e-01 0.000000e+00 0.000000e+00
0.000000e+00 0.000000e+00 0.000000e+00
-7.260000e-01 1.282500e-01 0.000000e+00
-5.445000e-01 1.282500e-01 0.000000e+00
-3.630000e-01 1.282500e-01 0.000000e+00
-1.815000e-01 1.282500e-01 0.000000e+00
0.000000e+00 1.282500e-01 0.000000e+00
-7.260000e-01 2.565000e-01 0.000000e+00
-5.445000e-01 2.565000e-01 0.000000e+00
-3.630000e-01 2.565000e-01 0.000000e+00
-1.815000e-01 2.565000e-01 0.000000e+00
0.000000e+00 2.565000e-01 0.000000e+00
-7.260000e-01 3.847500e-01 0.000000e+00
-5.445000e-01 3.847500e-01 0.000000e+00
-3.630000e-01 3.847500e-01 0.000000e+00
-1.815000e-01 3.847500e-01 0.000000e+00
0.000000e+00 3.847500e-01 0.000000e+00
-7.260000e-01 5.130000e-01 0.000000e+00
-5.445000e-01 5.130000e-01 0.000000e+00
-3.630000e-01 5.130000e-01 0.000000e+00
-1.815000e-01 5.130000e-01 0.000000e+00
0.000000e+00 5.130000e-01 0.000000e+00
0.000000e+00 0.000000e+00 0.000000e+00
1.815000e-01 0.000000e+00 0.000000e+00
3.630000e-01 0.000000e+00 0.000000e+00
5.445000e-01 0.000000e+00 0.000000e+00
7.260000e-01 0.000000e+00 0.000000e+00
0.000000e+00 1.282500e-01 0.000000e+00
1.815000e-01 1.282500e-01 0.000000e+00
3.630000e-01 1.282500e-01 0.000000e+00
5.445000e-01 1.282500e-01 0.000000e+00
7.260000e-01 1.282500e-01 0.000000e+00
0.000000e+00 2.565000e-01 0.000000e+00
1.815000e-01 2.565000e-01 0.000000e+00
3.630000e-01 2.565000e-01 0.000000e+00
5.445000e-01 2.565000e-01 0.000000e+00
7.260000e-01 2.565000e-01 0.000000e+00
0.000000e+00 3.847500e-01 0.000000e+00
1.815000e-01 3.847500e-01 0.000000e+00
3.630000e-01 3.847500e-01 0.000000e+00
5.445000e-01 3.847500e-01 0.000000e+00
7.260000e-01 3.847500e-01 0.000000e+00
0.000000e+00 5.130000e-01 0.000000e+00
1.815000e-01 5.130000e-01 0.000000e+00
3.630000e-01 5.130000e-01 0.000000e+00
5.445000e-01 5.130000e-01 0.000000e+00
7.260000e-01 5.130000e-01 0.000000e+00
7.260000e-01 0.000000e+00 0.000000e+00
9.075000e-01 0.000000e+00 0.000000e+00
1.089000e+00 0.000000e+00 0.000000e+00
1.270500e+00 0.000000e+00 0.000000e+00
1.452000e+00 0.000000e+00 0.000000e+00
7.260000e-01 1.282500e-01 0.000000e+00
9.075000e-01 1.282500e-01 0.000000e+00
1.089000e+00 1.282500e-01 0.000000e+00
1.270500e+00 1.282500e-01 0.000000e+00
1.452000e+00 1.282500e-01 0.000000e+00
7.260000e-01 2.565000e-01 0.000000e+00
9.075000e-01 2.565000e-01 0.000000e+00
1.089000e+00 2.565000e-01 0.000000e+00
1.270500e+00 2.565000e-01 0.000000e+00
1.452000e+00 2.565000e-01 0.000000e+00
7.260000e-01 3.847500e-01 0.000000e+00
9.075000e-01 3.847500e-01 0.000000e+00
1.089000e+00 3.847500e-01 0.000000e+00
1.270500e+00 3.847500e-01 0.000000e+00
1.452000e+00 3.847500e-01 0.000000e+00
7.260000e-01 5.130000e-01 0.000000e+00
9.075000e-01 5.130000e-01 0.000000e+00
1.089000e+00 5.130000e-01 0.000000e+00
1.270500e+00 5.130000e-01 0.000000e+00
1.452000e+00 5.130000e-01 0.000000e+00
1.452000e+00 0.000000e+00 0.000000e+00
1.633500e+00 0.000000e+00 0.000000e+00
1.815000e+00 0.000000e+00 0.000000e+00
1.996500e+00 0.000000e+00 0.000000e+00
2.178000e+00 0.000000e+00 0.000000e+00
1.452000e+00 1.282500e-01 0.000000e+00
1.633500e+00 1.282500e-01 0.000000e+00
1.815000e+00 1.282500e-01 0.000000e+00
1.996500e+00 1.282500e-01 0.000000e+00
2.178000e+00 1.282500e-01 0.000000e+00
1.452000e+00 2.565000e-01 0.000000e+00
1.633500e+00 2.565000e-01 0.000000e+00
1.815000e+00 2.565000e-01 0.000000e+00
1.996500e+00 2.565000e-01 0.000000e+00
2.178000e+00 2.565000e-01 0.000000e+00
1.452000e+00 3.847500e-01 0.000000e+00
1.633500e+00 3.847500e-01 0.000000e+00
1.815000e+00 3.847500e-01 0.000000e+00
1.996500e+00 3.847500e-01 0.000000e+00
2.178000e+00 3.847500e-01 0.000000e+00
1.452000e+00 5.130000e-01 0.000000e+00
1.633500e+00 5.130000e-01 0.000000e+00
1.815000e+00 5.130000e-01 0.000000e+00
1.996500e+00 5.130000e-01 0.000000e+00
2.178000e+00 5.130000e-01 0.000000e+00
2.178000e+00 0.000000e+00 0.000000e+00
2.359500e+00 0.000000e+00 0.000000e+00
2.541000e+00 0.000000e+00 0.000000e+00
2.722500e+00 0.000000e+00 0.000000e+00
2.904000e+00 0.000000e+00 0.000000e+00
2.178000e+00 1.282500e-01 0.000000e+00
2.359500e+00 1.282500e-01 0.000000e+00
2.541000e+00 1.282500e-01 0.000000e+00
2.722500e+00 1.282500e-01 0.000000e+00
2.904000e+00 1.282500e-01 0.000000e+00
2.178000e+00 2.565000e-01 0.000000e+00
2.359500e+00 2.565000e-01 0.000000e+00
2.541000e+00 2.565000e-01 0.000000e+00
2.722500e+00 2.565000e-01 0.000000e+00
2.904000e+00 2.565000e-01 0.000000e+00
2.178000e+00 3.847500e-01 0.000000e+00
2.359500e+00 3.847500e-01 0.000000e+00
2.541000e+00 3.847500e-01 0.000000e+00
2.722500e+00 3.847500e-01 0.000000e+00
2.904000e+00 3.847500e-01 0.000000e+00
2.178000e+00 5.130000e-01 0.000000e+00
2.359500e+00 5.130000e-01 0.000000e+00
2.541000e+00 5.130000e-01 0.000000e+00
2.722500e+00 5.130000e-01 0.000000e+00
2.904000e+00 5.130000e-01 0.000000e+00
2.904000e+00 0.000000e+00 0.000000e+00
3.085500e+00 0.000000e+00 0.000000e+00
3.267000e+00 0.000000e+00 0.000000e+00
3.448500e+00 0.000000e+00 0.000000e+00
3.630000e+00 0.000000e+00 0.000000e+00
2.904000e+00 1.282500e-01 0.000000e+00
3.085500e+00 1.282500e-01 0.000000e+00
3.267000e+00 1.282500e-01 0.000000e+00
3.448500e+00 1.282500e-01 0.000000e+00
3.630000e+00 1.282500e-01 0.000000e+00
2.904000e+00 2.565000e-01 0.000000e+00
3.085500e+00 2.565000e-01 0.000000e+00
3.267000e+00 2.565000e-01 0.000000e+00
3.448500e+00 2.565000e-01 0.000000e+00
3.630000e+00 2.565000e-01 0.000000e+00
2.904000e+00 3.847500e-01 0.000000e+00
3.085500e+00 3.847500e-01 0.000000e+00
3.267000e+00 3.847500e-01 0.000000e+00
3.448500e+00 3.847500e-01 0.000000e+00
3.630000e+00 3.847500e-01 0.000000e+00
2.904000e+00 5.130000e-01 0.000000e+00
[...]
<PointData>
<DataArray type="Float32" Name="V1" format="ascii">
2.018460e-02
1.939080e-02
1.844320e-02
1.734170e-02
1.608640e-02
2.021030e-02
1.942920e-02
1.849530e-02
1.740860e-02
1.616910e-02
2.028400e-02
1.951840e-02
1.860800e-02
1.755270e-02
1.635270e-02
2.040560e-02
1.965840e-02
1.878130e-02
1.777430e-02
1.663730e-02
2.057510e-02
1.984930e-02
1.901530e-02
1.807320e-02
1.702290e-02
1.608640e-02
1.482470e-02
1.306980e-02
1.082190e-02
8.080880e-03
1.616910e-02
1.486930e-02
1.313170e-02
1.095610e-02
8.342620e-03
1.635270e-02
1.501220e-02
1.331670e-02
1.126610e-02
8.860540e-03
1.663730e-02
1.525340e-02
1.362490e-02
1.175200e-02
9.634630e-03
1.702290e-02
1.559270e-02
1.405640e-02
1.241370e-02
1.066490e-02
8.080880e-03
2.103120e-03
-1.217240e-03
-1.880190e-03
1.142700e-04
8.342620e-03
2.603870e-03
-6.626350e-04
-1.456890e-03
2.211120e-04
8.860540e-03
3.404870e-03
2.412540e-04
-6.303030e-04
7.901960e-04
9.634630e-03
4.506120e-03
1.494430e-03
5.995610e-04
1.821520e-03
1.066490e-02
5.907610e-03
3.096880e-03
2.232710e-03
3.315090e-03
1.142700e-04
-1.412940e-02
-2.864630e-02
-4.343650e-02
-5.850010e-02
2.211120e-04
-1.332590e-02
-2.656990e-02
-3.951090e-02
-5.214890e-02
7.901960e-04
-1.186970e-02
-2.406110e-02
-3.578410e-02
-4.703850e-02
1.821520e-03
-9.760710e-03
-2.111990e-02
-3.225600e-02
-4.316910e-02
3.315090e-03
-6.998970e-03
-1.774630e-02
-2.892680e-02
-4.054060e-02
-5.850010e-02
-6.356290e-02
-6.931410e-02
-7.575360e-02
-8.288140e-02
-5.214890e-02
-6.049370e-02
-6.992410e-02
-8.043990e-02
-9.204130e-02
-4.703850e-02
-5.855600e-02
-7.097160e-02
-8.428550e-02
-9.849760e-02
-4.316910e-02
-5.774970e-02
-7.245670e-02
-8.729020e-02
-1.022500e-01
-4.054060e-02
-5.807490e-02
-7.437930e-02
-8.945400e-02
-1.032990e-01
-8.288140e-02
-7.373660e-02
-6.356590e-02
-5.236940e-02
-4.014690e-02
-9.204130e-02
-8.118990e-02
-6.907730e-02
-5.570360e-02
-4.106870e-02
-9.849760e-02
-8.651730e-02
-7.296420e-02
-5.783830e-02
-4.113950e-02
-1.022500e-01
-8.971890e-02
-7.522670e-02
-5.877350e-02
-4.035920e-02
-1.032990e-01
-9.079470e-02
-7.586480e-02
-5.850920e-02
-3.872780e-02
-4.014690e-02
-3.151230e-02
-2.371850e-02
-1.676550e-02
-1.065340e-02
-4.106870e-02
-3.170070e-02
-2.354660e-02
-1.660640e-02
-1.088000e-02
-4.113950e-02
-3.036940e-02
-2.167460e-02
-1.505530e-02
-1.051130e-02
-4.035920e-02
-2.751820e-02
-1.810250e-02
-1.211220e-02
-9.547170e-03
-3.872780e-02
-2.314720e-02
-1.283030e-02
-7.777110e-03
-7.987680e-03
-1.065340e-02
-2.758560e-03
3.095580e-03
6.909010e-03
8.681750e-03
-1.088000e-02
-2.644570e-03
3.393170e-03
7.233180e-03
8.875470e-03
-1.051130e-02
-2.089520e-03
4.029650e-03
7.846230e-03
9.360200e-03
-9.547170e-03
-1.093410e-03
5.005040e-03
8.748160e-03
1.013600e-02
-7.987680e-03
3.437650e-04
6.319320e-03
9.938970e-03
1.120270e-02
8.681750e-03
1.129530e-02
1.353420e-02
1.539840e-02
1.688790e-02
8.875470e-03
1.137140e-02
1.353790e-02
1.537480e-02
1.688220e-02
9.360200e-03
1.166770e-02
1.370660e-02
1.547690e-02
1.697850e-02
1.013600e-02
1.218410e-02
1.404020e-02
1.570450e-02
1.717680e-02
1.120270e-02
1.292050e-02
1.453880e-02
1.605770e-02
1.747700e-02
1.688790e-02
1.806070e-02
1.916950e-02
2.021410e-02
2.119450e-02
1.688220e-02
1.808600e-02
1.920520e-02
2.023970e-02
2.118950e-02
1.697850e-02
1.819690e-02
1.931180e-02
2.032310e-02
2.123100e-02
1.717680e-02
1.839340e-02
1.948920e-02
2.046450e-02
2.131900e-02
1.747700e-02
1.867540e-02
1.973760e-02
2.066360e-02
2.145350e-02
2.057510e-02
1.984930e-02
1.901530e-02
1.807320e-02
1.702290e-02
2.078850e-02
2.008770e-02
1.931420e-02
1.846810e-02
1.754920e-02
2.103660e-02
2.035810e-02
1.965110e-02
1.891580e-02
1.815190e-02
2.131930e-02
2.066040e-02
2.002610e-02
1.941620e-02
1.883100e-02
2.163650e-02
2.099460e-02
2.043900e-02
1.996950e-02
1.958630e-02
1.702290e-02
1.559270e-02
1.405640e-02
1.241370e-02
1.066490e-02
1.754920e-02
1.611000e-02
1.471050e-02
1.335080e-02
1.203090e-02
1.815190e-02
1.669000e-02
1.543870e-02
1.439800e-02
1.356780e-02
1.883100e-02
1.733290e-02
1.624110e-02
1.555540e-02
1.527590e-02
1.958630e-02
1.803870e-02
1.711760e-02
1.682300e-02
1.715490e-02
1.066490e-02
5.907610e-03
3.096880e-03
2.232710e-03
3.315090e-03
1.203090e-02
7.370670e-03
4.898280e-03
4.613690e-03
6.516890e-03
1.356780e-02
8.908640e-03
6.799570e-03
7.240630e-03
1.023180e-02
1.527590e-02
1.052150e-02
8.800750e-03
1.011350e-02
1.445980e-02
1.715490e-02
1.220930e-02
1.090180e-02
1.323240e-02
1.920100e-02
3.315090e-03
-6.998970e-03
-1.774630e-02
-2.892680e-02
-4.054060e-02
6.516890e-03
-3.593030e-03
-1.303750e-02
-2.181640e-02
-2.992980e-02
1.023180e-02
2.646630e-04
-7.594470e-03
-1.334560e-02
-1.698870e-02
1.445980e-02
4.574120e-03
-1.417340e-03
-3.514520e-03
-1.717440e-03
1.920100e-02
9.335340e-03
5.493960e-03
7.676860e-03
1.588400e-02
-4.054060e-02
-5.807490e-02
-7.437930e-02
-8.945400e-02
-1.032990e-01
-2.992980e-02
-4.678630e-02
-6.383230e-02
-8.106780e-02
-9.849280e-02
-1.698870e-02
-3.218720e-02
-4.772090e-02
-6.358970e-02
-7.979370e-02
-1.717440e-03
-1.427770e-02
-2.604510e-02
-3.701970e-02
-4.720150e-02
1.588400e-02
6.942450e-03
1.195170e-03
-1.357770e-03
-7.163980e-04
-1.032990e-01
-9.079470e-02
-7.586480e-02
-5.850920e-02
-3.872780e-02
-9.849280e-02
-8.125140e-02
-6.501570e-02
-4.978590e-02
-3.556190e-02
-7.979370e-02
-6.200570e-02
-4.736730e-02
-3.587860e-02
-2.753940e-02
-4.720150e-02
-3.305760e-02
-2.291940e-02
-1.678710e-02
-1.466050e-02
-7.163980e-04
5.592860e-03
8.327810e-03
7.488460e-03
3.074810e-03
-3.872780e-02
-2.314720e-02
-1.283030e-02
-7.777110e-03
-7.987680e-03
-3.556190e-02
-1.873610e-02
-8.224770e-03
-4.027910e-03
-6.145500e-03
-2.753940e-02
-1.220890e-02
-3.134870e-03
-3.174630e-04
-3.756640e-03
-1.466050e-02
-3.565490e-03
2.439430e-03
3.354230e-03
-8.210980e-04
3.074810e-03
7.194000e-03
8.498120e-03
6.987160e-03
2.661120e-03
-7.987680e-03
3.437650e-04
6.319320e-03
9.938970e-03
1.120270e-02
-6.145500e-03
2.180650e-03
8.013980e-03
1.135450e-02
1.220220e-02
-3.756640e-03
4.417130e-03
1.000240e-02
1.299930e-02
1.340760e-02
-8.210980e-04
7.053200e-03
1.228470e-02
1.487330e-02
1.481910e-02
2.661120e-03
1.008890e-02
1.486070e-02
1.697660e-02
1.643650e-02
1.120270e-02
1.292050e-02
1.453880e-02
1.605770e-02
1.747700e-02
1.220220e-02
1.368470e-02
1.512020e-02
1.650850e-02
1.784980e-02
1.340760e-02
1.460020e-02
1.581070e-02
1.703930e-02
1.828590e-02
1.481910e-02
1.566700e-02
1.661060e-02
1.765000e-02
1.878520e-02
1.643650e-02
1.688510e-02
1.751980e-02
1.834060e-02
1.934770e-02
1.747700e-02
1.867540e-02
1.973760e-02
2.066360e-02
2.145350e-02
1.784980e-02
1.898790e-02
1.999140e-02
2.086030e-02
2.159470e-02
1.828590e-02
1.935750e-02
2.029620e-02
2.110180e-02
2.177450e-02
1.878520e-02
1.978430e-02
2.065200e-02
2.138830e-02
2.199310e-02
1.934770e-02
2.026820e-02
2.105880e-02
2.171950e-02
2.225040e-02
2.163650e-02
2.099460e-02
2.043900e-02
1.996950e-02
1.958630e-02
2.197900e-02
2.137330e-02
2.090500e-02
2.057420e-02
2.038070e-02
2.233590e-02
2.178120e-02
2.139680e-02
2.118270e-02
2.113890e-02
2.270730e-02
2.221830e-02
2.191430e-02
2.179520e-02
2.186110e-02
2.309330e-02
2.268470e-02
2.245740e-02
2.241160e-02
2.254710e-02
1.958630e-02
1.803870e-02
1.711760e-02
1.682300e-02
1.715490e-02
2.038070e-02
1.878300e-02
1.802950e-02
1.812020e-02
1.905500e-02
2.113890e-02
1.957780e-02
1.898610e-02
1.936370e-02
2.071050e-02
2.186110e-02
2.042320e-02
1.998730e-02
2.055340e-02
2.212140e-02
2.254710e-02
2.131910e-02
2.103320e-02
2.168940e-02
2.328770e-02
1.715490e-02
1.220930e-02
1.090180e-02
1.323240e-02
1.920100e-02
1.905500e-02
1.394660e-02
1.301840e-02
1.627030e-02
2.370230e-02
2.071050e-02
1.580850e-02
1.523650e-02
1.899460e-02
2.708280e-02
2.212140e-02
1.779490e-02
1.755620e-02
2.140540e-02
2.934240e-02
2.328770e-02
1.990580e-02
1.997750e-02
2.350250e-02
3.048110e-02
1.920100e-02
9.335340e-03
5.493960e-03
7.676860e-03
1.588400e-02
2.370230e-02
1.324830e-02
1.089030e-02
1.662810e-02
3.046200e-02
2.708280e-02
1.743570e-02
1.636640e-02
2.387470e-02
3.996080e-02
2.934240e-02
2.189760e-02
2.192230e-02
2.941660e-02
4.438050e-02
3.048110e-02
2.663380e-02
2.755810e-02
3.325380e-02
4.372120e-02
1.588400e-02
6.942450e-03
1.195170e-03
-1.357770e-03
-7.163980e-04
3.046200e-02
3.121830e-02
3.423800e-02
3.952110e-02
4.706750e-02
3.996080e-02
4.843580e-02
5.791060e-02
6.838550e-02
7.986020e-02
4.438050e-02
5.859470e-02
7.221300e-02
8.523540e-02
9.766190e-02
4.372120e-02
6.169520e-02
7.714510e-02
9.007080e-02
1.004720e-01
-7.163980e-04
5.592860e-03
8.327810e-03
7.488460e-03
3.074810e-03
4.706750e-02
4.207240e-02
3.538150e-02
2.699470e-02
1.691200e-02
7.986020e-02
6.825210e-02
5.591870e-02
4.286010e-02
2.907630e-02
9.766190e-02
8.413170e-02
6.993930e-02
5.508460e-02
3.956770e-02
1.004720e-01
8.971140e-02
7.744340e-02
6.366840e-02
4.838630e-02
3.074810e-03
7.194000e-03
8.498120e-03
6.987160e-03
2.661120e-03
1.691200e-02
1.734580e-02
1.585410e-02
1.243680e-02
7.093980e-03
2.907630e-02
2.609660e-02
2.216600e-02
1.728450e-02
1.145210e-02
3.956770e-02
3.344640e-02
2.743390e-02
2.153020e-02
1.573540e-02
4.838630e-02
3.939520e-02
3.165770e-02
2.517400e-02
1.994410e-02
2.661120e-03
1.008890e-02
1.486070e-02
1.697660e-02
1.643650e-02
7.093980e-03
1.305260e-02
1.688900e-02
1.860310e-02
1.819480e-02
1.145210e-02
1.597570e-02
1.888050e-02
2.016670e-02
1.983400e-02
1.573540e-02
1.885810e-02
2.083540e-02
2.166740e-02
2.135420e-02
1.994410e-02
2.169970e-02
2.275350e-02
2.310530e-02
2.275520e-02
1.643650e-02
1.688510e-02
1.751980e-02
1.834060e-02
1.934770e-02
1.819480e-02
1.819860e-02
1.848020e-02
1.903950e-02
1.987670e-02
1.983400e-02
1.947670e-02
1.945850e-02
1.977960e-02
2.044000e-02
2.135420e-02
2.071920e-02
2.045480e-02
2.056090e-02
2.103750e-02
2.275520e-02
2.192640e-02
2.146910e-02
2.138340e-02
2.166920e-02
1.934770e-02
2.026820e-02
2.105880e-02
2.171950e-02
2.225040e-02
1.987670e-02
2.077880e-02
2.151640e-02
2.208960e-02
2.249840e-02
2.044000e-02
2.130940e-02
2.198590e-02
2.246940e-02
2.276000e-02
2.103750e-02
2.186020e-02
2.246730e-02
2.285900e-02
2.303520e-02
2.166920e-02
2.243090e-02
2.296070e-02
2.325840e-02
2.332400e-02
2.309330e-02
2.268470e-02
2.245740e-02
2.241160e-02
2.254710e-02
2.348320e-02
2.314400e-02
2.297900e-02
2.298840e-02
2.317200e-02
2.386930e-02
2.359630e-02
2.348990e-02
2.355000e-02
2.377680e-02
2.425160e-02
2.404170e-02
2.399000e-02
2.409650e-02
2.436130e-02
2.463000e-02
2.448000e-02
2.447930e-02
2.462780e-02
2.492560e-02
2.254710e-02
2.131910e-02
2.103320e-02
2.168940e-02
2.328770e-02
2.317200e-02
2.222040e-02
2.206430e-02
2.270400e-02
2.413930e-02
2.377680e-02
2.308300e-02
2.304440e-02
2.366100e-02
2.493280e-02
2.436130e-02
2.390710e-02
2.397350e-02
2.456050e-02
2.566820e-02
2.492560e-02
2.469250e-02
2.485140e-02
2.540240e-02
2.634550e-02
2.328770e-02
1.990580e-02
1.997750e-02
2.350250e-02
3.048110e-02
2.413930e-02
2.198740e-02
2.233410e-02
2.517940e-02
3.052340e-02
2.493280e-02
2.388780e-02
2.448810e-02
2.673370e-02
3.062450e-02
2.566820e-02
2.560730e-02
2.643970e-02
2.816540e-02
3.078450e-02
2.634550e-02
2.714570e-02
2.818880e-02
2.947460e-02
3.100330e-02
3.048110e-02
2.663380e-02
2.755810e-02
3.325380e-02
4.372120e-02
3.052340e-02
3.037590e-02
3.290150e-02
3.810020e-02
4.597190e-02
3.062450e-02
3.305230e-02
3.658240e-02
4.121500e-02
4.695000e-02
3.078450e-02
3.466290e-02
3.860090e-02
4.259830e-02
4.665540e-02
3.100330e-02
3.520780e-02
3.895680e-02
4.225020e-02
4.508810e-02
4.372120e-02
6.169520e-02
7.714510e-02
9.007080e-02
1.004720e-01
4.597190e-02
6.003630e-02
7.294270e-02
8.469110e-02
9.528150e-02
4.695000e-02
5.763850e-02
6.788270e-02
7.768230e-02
8.703760e-02
4.665540e-02
5.450190e-02
6.196490e-02
6.904450e-02
7.574070e-02
4.508810e-02
5.062630e-02
5.518950e-02
5.877770e-02
6.139080e-02
1.004720e-01
8.971140e-02
7.744340e-02
6.366840e-02
4.838630e-02
9.528150e-02
8.318020e-02
7.104430e-02
5.887380e-02
4.666880e-02
8.703760e-02
7.597030e-02
6.561020e-02
5.595720e-02
4.701150e-02
7.574070e-02
6.808170e-02
6.114110e-02
5.491860e-02
4.941440e-02
6.139080e-02
5.951450e-02
5.763690e-02
5.575800e-02
5.387770e-02
4.838630e-02
3.939520e-02
3.165770e-02
2.517400e-02
1.994410e-02
4.666880e-02
4.014350e-02
3.399560e-02
2.822500e-02
2.283170e-02
4.701150e-02
4.144780e-02
3.597360e-02
3.058890e-02
2.529370e-02
4.941440e-02
4.330800e-02
3.759170e-02
3.226570e-02
2.732990e-02
5.387770e-02
4.572400e-02
3.884990e-02
3.325540e-02
2.894040e-02
1.994410e-02
2.169970e-02
2.275350e-02
2.310530e-02
2.275520e-02
2.283170e-02
2.396040e-02
2.452950e-02
2.453920e-02
2.398930e-02
2.529370e-02
2.593430e-02
2.610990e-02
2.582050e-02
2.506600e-02
2.732990e-02
2.762150e-02
2.749460e-02
2.694930e-02
2.598550e-02
2.894040e-02
2.902200e-02
2.868370e-02
2.792560e-02
2.674760e-02
2.275520e-02
2.192640e-02
2.146910e-02
2.138340e-02
2.166920e-02
2.398930e-02
2.303110e-02
2.244840e-02
2.224130e-02
2.240960e-02
2.506600e-02
2.402960e-02
2.336050e-02
2.305880e-02
2.312440e-02
2.598550e-02
2.492190e-02
2.420540e-02
2.383590e-02
2.381340e-02
2.674760e-02
2.570800e-02
2.498300e-02
2.457260e-02
2.447660e-02
2.166920e-02
2.243090e-02
2.296070e-02
2.325840e-02
2.332400e-02
2.240960e-02
2.299250e-02
2.339370e-02
2.361310e-02
2.365070e-02
2.312440e-02
2.353590e-02
2.381460e-02
2.396030e-02
2.397300e-02
2.381340e-02
2.406120e-02
2.422340e-02
2.430000e-02
2.429090e-02
2.447660e-02
2.456830e-02
2.462010e-02
2.463220e-02
2.460440e-02
2.463000e-02
2.448000e-02
2.447930e-02
2.462780e-02
2.492560e-02
2.499690e-02
2.490300e-02
2.494820e-02
2.513250e-02
2.545580e-02
2.534870e-02
2.530720e-02
2.539430e-02
2.560990e-02
2.595410e-02
2.568540e-02
2.569250e-02
2.581740e-02
2.606010e-02
2.642050e-02
2.600690e-02
2.605890e-02
2.621760e-02
2.648300e-02
2.685510e-02
2.492560e-02
2.469250e-02
2.485140e-02
2.540240e-02
2.634550e-02
2.545580e-02
2.538000e-02
2.562290e-02
2.618440e-02
2.706470e-02
2.595410e-02
2.601510e-02
2.633060e-02
2.690070e-02
2.772540e-02
2.642050e-02
2.659780e-02
2.697480e-02
2.755140e-02
2.832760e-02
2.685510e-02
2.712820e-02
2.755530e-02
2.813630e-02
2.887130e-02
2.634550e-02
2.714570e-02
2.818880e-02
2.947460e-02
3.100330e-02
2.706470e-02
2.812460e-02
2.928980e-02
3.056040e-02
3.193640e-02
2.772540e-02
2.892260e-02
3.014620e-02
3.139630e-02
3.267280e-02
2.832760e-02
2.953970e-02
3.075790e-02
3.198210e-02
3.321250e-02
2.887130e-02
2.997600e-02
3.112490e-02
3.231800e-02
3.355540e-02
3.100330e-02
3.520780e-02
3.895680e-02
4.225020e-02
4.508810e-02
3.193640e-02
3.560610e-02
3.886340e-02
4.170810e-02
4.414040e-02
3.267280e-02
3.588140e-02
3.872300e-02
4.119760e-02
4.330510e-02
3.321250e-02
3.603370e-02
3.853580e-02
4.071870e-02
4.258240e-02
3.355540e-02
3.606300e-02
3.830170e-02
4.027140e-02
4.197210e-02
4.508810e-02
5.062630e-02
5.518950e-02
5.877770e-02
6.139080e-02
4.414040e-02
4.854570e-02
5.234830e-02
5.554820e-02
5.814540e-02
4.330510e-02
4.678480e-02
4.988970e-02
5.261980e-02
5.497500e-02
4.258240e-02
4.534380e-02
4.781390e-02
4.999240e-02
5.187950e-02
4.197210e-02
4.422270e-02
4.612070e-02
4.766620e-02
4.885900e-02
6.139080e-02
5.951450e-02
5.763690e-02
5.575800e-02
5.387770e-02
5.814540e-02
5.642690e-02
5.444470e-02
5.219900e-02
4.968970e-02
5.497500e-02
5.340170e-02
5.148610e-02
4.922800e-02
4.662760e-02
5.187950e-02
5.043910e-02
4.876100e-02
4.684510e-02
4.469140e-02
4.885900e-02
4.753910e-02
4.626950e-02
4.505020e-02
4.388120e-02
5.387770e-02
4.572400e-02
3.884990e-02
3.325540e-02
2.894040e-02
4.968970e-02
4.366090e-02
3.848330e-02
3.415680e-02
3.068140e-02
4.662760e-02
4.221820e-02
3.832310e-02
3.494220e-02
3.207560e-02
4.469140e-02
4.139590e-02
3.836930e-02
3.561160e-02
3.312280e-02
4.388120e-02
4.119400e-02
3.862200e-02
3.616500e-02
3.382320e-02
2.894040e-02
2.902200e-02
2.868370e-02
2.792560e-02
2.674760e-02
3.068140e-02
3.022980e-02
2.953140e-02
2.858610e-02
2.739390e-02
3.207560e-02
3.118790e-02
3.020450e-02
2.912510e-02
2.795000e-02
3.312280e-02
3.189630e-02
3.070300e-02
2.954280e-02
2.841570e-02
3.382320e-02
3.235500e-02
3.102690e-02
2.983890e-02
2.879110e-02
2.674760e-02
2.570800e-02
2.498300e-02
2.457260e-02
2.447660e-02
2.739390e-02
2.645660e-02
2.576430e-02
2.531690e-02
2.511460e-02
2.795000e-02
2.711570e-02
2.646140e-02
2.598720e-02
2.569300e-02
2.841570e-02
2.768520e-02
2.707440e-02
2.658330e-02
2.621180e-02
2.879110e-02
2.816530e-02
2.760330e-02
2.710520e-02
2.667090e-02
2.447660e-02
2.456830e-02
2.462010e-02
2.463220e-02
2.460440e-02
2.511460e-02
2.506450e-02
2.501610e-02
2.496920e-02
2.492400e-02
2.569300e-02
2.552110e-02
2.538660e-02
2.528940e-02
2.522950e-02
2.621180e-02
2.593810e-02
2.573170e-02
2.559260e-02
2.552080e-02
2.667090e-02
2.631550e-02
2.605150e-02
2.587900e-02
2.579790e-02
2.600690e-02
2.605890e-02
2.621760e-02
2.648300e-02
2.685510e-02
2.630990e-02
2.639660e-02
2.658040e-02
2.686140e-02
2.723940e-02
2.659390e-02
2.671220e-02
2.691750e-02
2.721000e-02
2.758950e-02
2.685910e-02
2.700560e-02
2.722890e-02
2.752880e-02
2.790550e-02
2.710540e-02
2.727700e-02
2.751450e-02
2.781790e-02
2.818730e-02
2.685510e-02
2.712820e-02
2.755530e-02
2.813630e-02
2.887130e-02
2.723940e-02
2.756670e-02
2.802170e-02
2.860450e-02
2.931500e-02
2.758950e-02
2.795700e-02
2.842950e-02
2.900720e-02
2.969000e-02
2.790550e-02
2.829900e-02
2.877870e-02
2.934450e-02
2.999640e-02
2.818730e-02
2.859290e-02
2.906930e-02
2.961630e-02
3.023400e-02
2.887130e-02
2.997600e-02
3.112490e-02
3.231800e-02
3.355540e-02
2.931500e-02
3.038560e-02
3.147920e-02
3.259560e-02
3.373490e-02
2.969000e-02
3.072490e-02
3.176220e-02
3.280200e-02
3.384420e-02
2.999640e-02
3.099370e-02
3.197400e-02
3.293720e-02
3.388340e-02
3.023400e-02
3.119210e-02
3.211450e-02
3.300130e-02
3.385260e-02
3.355540e-02
3.606300e-02
3.830170e-02
4.027140e-02
4.197210e-02
3.373490e-02
3.598030e-02
3.796170e-02
3.967910e-02
4.113260e-02
3.384420e-02
3.582260e-02
3.755800e-02
3.905040e-02
4.029960e-02
3.388340e-02
3.559020e-02
3.709070e-02
3.838500e-02
3.947310e-02
3.385260e-02
3.528290e-02
3.655980e-02
3.768320e-02
3.865310e-02
4.197210e-02
4.422270e-02
4.612070e-02
4.766620e-02
4.885900e-02
4.113260e-02
4.303030e-02
4.459560e-02
4.582840e-02
4.672880e-02
4.029960e-02
4.187780e-02
4.315660e-02
4.413600e-02
4.481600e-02
3.947310e-02
4.076520e-02
4.180380e-02
4.258890e-02
4.312060e-02
3.865310e-02
3.969240e-02
4.053710e-02
4.118720e-02
4.164270e-02
4.885900e-02
4.753910e-02
4.626950e-02
4.505020e-02
4.388120e-02
4.672880e-02
4.553900e-02
4.437710e-02
4.324310e-02
4.213690e-02
4.481600e-02
4.381290e-02
4.280880e-02
4.180400e-02
4.079830e-02
4.312060e-02
4.236050e-02
4.156460e-02
4.073290e-02
3.986540e-02
4.164270e-02
4.118210e-02
4.064450e-02
4.002990e-02
3.933820e-02
4.388120e-02
4.119400e-02
3.862200e-02
3.616500e-02
3.382320e-02
4.213690e-02
3.998540e-02
3.791480e-02
3.592500e-02
3.401590e-02
4.079830e-02
3.903720e-02
3.733760e-02
3.569950e-02
3.412270e-02
3.986540e-02
3.834940e-02
3.689040e-02
3.548850e-02
3.414360e-02
3.933820e-02
3.792190e-02
3.657320e-02
3.529210e-02
3.407860e-02
3.382320e-02
3.235500e-02
3.102690e-02
2.983890e-02
2.879110e-02
3.401590e-02
3.264960e-02
3.139840e-02
3.026220e-02
2.924100e-02
3.412270e-02
3.285700e-02
3.168530e-02
3.060770e-02
2.962410e-02
3.414360e-02
3.297710e-02
3.188770e-02
3.087550e-02
2.994030e-02
3.407860e-02
3.300990e-02
3.200560e-02
3.106550e-02
3.018980e-02
2.879110e-02
2.816530e-02
2.760330e-02
2.710520e-02
2.667090e-02
2.924100e-02
2.860450e-02
2.802780e-02
2.751080e-02
2.705360e-02
2.962410e-02
2.897940e-02
2.839240e-02
2.786300e-02
2.739110e-02
2.994030e-02
2.929000e-02
2.869700e-02
2.816160e-02
2.768350e-02
3.018980e-02
2.953610e-02
2.894180e-02
2.840660e-02
2.793080e-02
2.667090e-02
2.631550e-02
2.605150e-02
2.587900e-02
2.579790e-02
2.705360e-02
2.668330e-02
2.639400e-02
2.618590e-02
2.605870e-02
2.739110e-02
2.701460e-02
2.670730e-02
2.646920e-02
2.630030e-02
2.768350e-02
2.730940e-02
2.699130e-02
2.672900e-02
2.652260e-02
2.793080e-02
2.756780e-02
2.724600e-02
2.696530e-02
2.672570e-02
2.710540e-02
2.727700e-02
2.751450e-02
2.781790e-02
2.818730e-02
2.733260e-02
2.751850e-02
2.776380e-02
2.806830e-02
2.843210e-02
2.754220e-02
2.773960e-02
2.799000e-02
2.829330e-02
2.864950e-02
2.773410e-02
2.794030e-02
2.819330e-02