<?xml version="1.0"?>
<VTKFile type="UnstructuredGrid" version="0.1" byte_order="LittleEndian" compressor="vtkZLibDataCompressor">
<UnstructuredGrid>
<Piece NumberOfPoints="2500" NumberOfCells="1600">
<Points>
<DataArray type="Float32" NumberOfComponents="3" format="ascii">
-3.630000e+00 0.000000e+00 0.000000e+00
-3.448500e+00 0.000000e+00 0.000000e+00
-3.267000e+00 0.000000e+00 0.000000e+00
-3.085500e+00 0.000000e+00 0.000000e+00
-2.904000e+00 0.000000e+00 0.000000e+00
-3.630000e+00 1.282500e-01 0.000000e+00
-3.448500e+00 1.282500e-01 0.000000e+00
-3.267000e+00 1.282500e-01 0.000000e+00
-3.085500e+00 1.282500e-01 0.000000e+00
-2.904000e+00 1.282500e-01 0.000000e+00
-3.630000e+00 2.565000e-01 0.000000e+00
-3.448500e+00 2.565000e-01 0.000000e+00
-3.267000e+00 2.565000e-01 0.000000e+00
-3.085500e+00 2.565000e-01 0.000000e+00
-2.904000e+00 2.565000e-01 0.000000e+00
-3.630000e+00 3.847500e-01 0.000000e+00
-3.448500e+00 3.847500e-01 0.000000e+00
-3.267000e+00 3.847500e-01 0.000000e+00
-3.085500e+00 3.847500e-01 0.000000e+00
-2.904000e+00 3.847500e-01 0.000000e+00
-3.630000e+00 5.130000e-01 0.000000e+00
-3.448500e+00 5.130000e-01 0.000000e+00
-3.267000e+00 5.130000e-01 0.000000e+00
-3.085500e+00 5.130000e-01 0.000000e+00
-2.904000e+00 5.130000e-01 0.000000e+00
-2.904000e+00 0.000000e+00 0.000000e+00
-2.722500e+00 0.000000e+00 0.000000e+00
-2.541000e+00 0.000000e+00 0.000000e+00
-2.359500e+00 0.000000e+00 0.000000e+00
-2.178000e+00 0.000000e+00 0.000000e+00
-2.904000e+00 1.282500e-01 0.000000e+00
-2.722500e+00 1.282500e-01 0.000000e+00
-2.541000e+00 1.282500e-01 0.000000e+00
-2.359500e+00 1.282500e-01 0.000000e+00
-2.178000e+00 1.282500e-01 0.000000e+00
-2.904000e+00 2.565000e-01 0.000000e+00
-2.722500e+00 2.565000e-01 0.000000e+00
-2.541000e+00 2.565000e-01 0.000000e+00
-2.359500e+00 2.565000e-01 0.000000e+00
-2.178000e+00 2.565000e-01 0.000000e+00
-2.904000e+00 3.847500e-01 0.000000e+00
-2.722500e+00 3.847500e-01 0.000000e+00
-2.541000e+00 3.847500e-01 0.000000e+00
-2.359500e+00 3.847500e-01 0.000000e+00
-2.178000e+00 3.847500e-01 0.000000e+00
-2.904000e+00 5.130000e-01 0.000000e+00
-2.722500e+00 5.130000e-01 0.000000e+00
-2.541000e+00 5.130000e-01 0.000000e+00
-2.359500e+00 5.130000e-01 0.000000e+00
-2.178000e+00 5.130000e-01 0.000000e+00
-2.178000e+00 0.000000e+00 0.000000e+00
-1.996500e+00 0.000000e+00 0.000000e+00
-1.815000e+00 0.000000e+00 0.000000e+00
-1.633500e+00 0.000000e+00 0.000000e+00
-1.452000e+00 0.000000e+00 0.000000e+00
-2.178000e+00 1.282500e-01 0.000000e+00
-1.996500e+00 1.282500e-01 0.000000e+00
-1.815000e+00 1.282500e-01 0.000000e+00
-1.633500e+00 1.282500e-01 0.000000e+00
-1.452000e+00 1.282500e-01 0.000000e+00
-2.178000e+00 2.565000e-01 0.000000e+00
-1.996500e+00 2.565000e-01 0.000000e+00
-1.815000e+00 2.565000e-01 0.000000e+00
-1.633500e+00 2.565000e-01 0.000000e+00
-1.452000e+00 2.565000e-01 0.000000e+00
-2.178000e+00 3.847500e-01 0.000000e+00
-1.996500e+00 3.847500e-01 0.000000e+00
-1.815000e+00 3.847500e-01 0.000000e+00
-1.633500e+00 3.847500e-01 0.000000e+00
-1.452000e+00 3.847500e-01 0.000000e+00
-2.178000e+00 5.130000e-01 0.000000e+00
-1.996500e+00 5.130000e-01 0.000000e+00
-1.815000e+00 5.130000e-01 0.000000e+00
-1.633500e+00 5.130000e-01 0.000000e+00
-1.452000e+00 5.130000e-01 0.000000e+00
-1.452000e+00 0.000000e+00 0.000000e+00
-1.270500e+00 0.000000e+00 0.000000e+00
-1.089000e+00 0.000000e+00 0.000000e+00
-9.075000e-01 0.000000e+00 0.000000e+00
-7.260000e-01 0.000000e+00 0.000000e+00
-1.452000e+00 1.282500e-01 0.000000e+00
-1.270500e+00 1.282500e-01 0.000000e+00
-1.089000e+00 1.282500e-01 0.000000e+00
-9.075000e-01 1.282500e-01 0.000000e+00
-7.260000e-01 1.282500e-01 0.000000e+00
-1.452000e+00 2.565000e-01 0.000000e+00
-1.270500e+00 2.565000e-01 0.000000e+00
-1.089000e+00 2.565000e-01 0.000000e+00
-9.075000e-01 2.565000e-01 0.000000e+00
-7.260000e-01 2.565000e-01 0.000000e+00
-1.452000e+00 3.847500e-01 0.000000e+00
-1.270500e+00 3.847500e-01 0.000000e+00
-1.089000e+00 3.847500e-01 0.000000e+00
-9.075000e-01 3.847500e-01 0.000000e+00
-7.260000e-01 3.847500e-01 0.000000e+00
-1.452000e+00 5.130000e-01 0.000000e+00
-1.270500e+00 5.130000e-01 0.000000e+00
-1.089000e+00 5.130000e-01 0.000000e+00
-9.075000e-01 5.130000e-01 0.000000e+00
-7.260000e-01 5.130000e-01 0.000000e+00
-7.260000e-01 0.000000e+00 0.000000e+00
-5.445000e-01 0.000000e+00 0.000000e+00
-3.630000e-01 0.000000e+00 0.000000e+00
-1.815000e-01 0.000000e+00 0.000000e+00
0.000000e+00 0.000000e+00 0.000000e+00
-7.260000e-01 1.282500e-01 0.000000e+00
-5.445000e-01 1.282500e-01 0.000000e+00
-3.630000e-01 1.282500e-01 0.000000e+00
-1.815000e-01 1.282500e-01 0.000000e+00
0.000000e+00 1.282500e-01 0.000000e+00
-7.260000e-01 2.565000e-01 0.000000e+00
-5.445000e-01 2.565000e-01 0.000000e+00
-3.630000e-01 2.565000e-01 0.000000e+00
-1.815000e-01 2.565000e-01 0.000000e+00
0.000000e+00 2.565000e-01 0.000000e+00
-7.260000e-01 3.847500e-01 0.000000e+00
-5.445000e-01 3.847500e-01 0.000000e+00
-3.630000e-01 3.847500e-01 0.000000e+00
-1.815000e-01 3.847500e-01 0.000000e+00
0.000000e+00 3.847500e-01 0.000000e+00
-7.260000e-01 5.130000e-01 0.000000e+00
-5.445000e-01 5.130000e-01 0.000000e+00
-3.630000e-01 5.130000e-01 0.000000e+00
-1.815000e-01 5.130000e-01 0.000000e+00
0.000000e+00 5.130000e-01 0.000000e+00
0.000000e+00 0.000000e+00 0.000000e+00
1.815000e-01 0.000000e+00 0.000000e+00
3.630000e-01 0.000000e+00 0.000000e+00
5.445000e-01 0.000000e+00 0.000000e+00
7.260000e-01 0.000000e+00 0.000000e+00
0.000000e+00 1.282500e-01 0.000000e+00
1.815000e-01 1.282500e-01 0.000000e+00
3.630000e-01 1.282500e-01 0.000000e+00
5.445000e-01 1.282500e-01 0.000000e+00
7.260000e-01 1.282500e-01 0.000000e+00
0.000000e+00 2.565000e-01 0.000000e+00
1.815000e-01 2.565000e-01 0.000000e+00
3.630000e-01 2.565000e-01 0.000000e+00
5.445000e-01 2.565000e-01 0.000000e+00
7.260000e-01 2.565000e-01 0.000000e+00
0.000000e+00 3.847500e-01 0.000000e+00
1.815000e-01 3.847500e-01 0.000000e+00
3.630000e-01 3.847500e-01 0.000000e+00
5.445000e-01 3.847500e-01 0.000000e+00
7.260000e-01 3.847500e-01 0.000000e+00
0.000000e+00 5.130000e-01 0.000000e+00
1.815000e-01 5.130000e-01 0.000000e+00
3.630000e-01 5.130000e-01 0.000000e+00
5.445000e-01 5.130000e-01 0.000000e+00
7.260000e-01 5.130000e-01 0.000000e+00
7.260000e-01 0.000000e+00 0.000000e+00
9.075000e-01 0.000000e+00 0.000000e+00
1.089000e+00 0.000000e+00 0.000000e+00
1.270500e+00 0.000000e+00 0.000000e+00
1.452000e+00 0.000000e+00 0.000000e+00
7.260000e-01 1.282500e-01 0.000000e+00
9.075000e-01 1.282500e-01 0.000000e+00
1.089000e+00 1.282500e-01 0.000000e+00
1.270500e+00 1.282500e-01 0.000000e+00
1.452000e+00 1.282500e-01 0.000000e+00
7.260000e-01 2.565000e-01 0.000000e+00
9.075000e-01 2.565000e-01 0.000000e+00
1.089000e+00 2.565000e-01 0.000000e+00
1.270500e+00 2.565000e-01 0.000000e+00
1.452000e+00 2.565000e-01 0.000000e+00
7.260000e-01 3.847500e-01 0.000000e+00
9.075000e-01 3.847500e-01 0.000000e+00
1.089000e+00 3.847500e-01 0.000000e+00
1.270500e+00 3.847500e-01 0.000000e+00
1.452000e+00 3.847500e-01 0.000000e+00
7.260000e-01 5.130000e-01 0.000000e+00
9.075000e-01 5.130000e-01 0.000000e+00
1.089000e+00 5.130000e-01 0.000000e+00
1.270500e+00 5.130000e-01 0.000000e+00
1.452000e+00 5.130000e-01 0.000000e+00
1.452000e+00 0.000000e+00 0.000000e+00
1.633500e+00 0.000000e+00 0.000000e+00
1.815000e+00 0.000000e+00 0.000000e+00
1.996500e+00 0.000000e+00 0.000000e+00
2.178000e+00 0.000000e+00 0.000000e+00
1.452000e+00 1.282500e-01 0.000000e+00
1.633500e+00 1.282500e-01 0.000000e+00
1.815000e+00 1.282500e-01 0.000000e+00
1.996500e+00 1.282500e-01 0.000000e+00
2.178000e+00 1.282500e-01 0.000000e+00
1.452000e+00 2.565000e-01 0.000000e+00
1.633500e+00 2.565000e-01 0.000000e+00
1.815000e+00 2.565000e-01 0.000000e+00
1.996500e+00 2.565000e-01 0.000000e+00
2.178000e+00 2.565000e-01 0.000000e+00
1.452000e+00 3.847500e-01 0.000000e+00
1.633500e+00 3.847500e-01 0.000000e+00
1.815000e+00 3.847500e-01 0.000000e+00
1.996500e+00 3.847500e-01 0.000000e+00
2.178000e+00 3.847500e-01 0.000000e+00
1.452000e+00 5.130000e-01 0.000000e+00
1.633500e+00 5.130000e-01 0.000000e+00
1.815000e+00 5.130000e-01 0.000000e+00
1.996500e+00 5.130000e-01 0.000000e+00
2.178000e+00 5.130000e-01 0.000000e+00
2.178000e+00 0.000000e+00 0.000000e+00
2.359500e+00 0.000000e+00 0.000000e+00
2.541000e+00 0.000000e+00 0.000000e+00
2.722500e+00 0.000000e+00 0.000000e+00
2.904000e+00 0.000000e+00 0.000000e+00
2.178000e+00 1.282500e-01 0.000000e+00
2.359500e+00 1.282500e-01 0.000000e+00
2.541000e+00 1.282500e-01 0.000000e+00
2.722500e+00 1.282500e-01 0.000000e+00
2.904000e+00 1.282500e-01 0.000000e+00
2.178000e+00 2.565000e-01 0.000000e+00
2.359500e+00 2.565000e-01 0.000000e+00
2.541000e+00 2.565000e-01 0.000000e+00
2.722500e+00 2.565000e-01 0.000000e+00
2.904000e+00 2.565000e-01 0.000000e+00
2.178000e+00 3.847500e-01 0.000000e+00
2.359500e+00 3.847500e-01 0.000000e+00
2.541000e+00 3.847500e-01 0.000000e+00
2.722500e+00 3.847500e-01 0.000000e+00
2.904000e+00 3.847500e-01 0.000000e+00
2.178000e+00 5.130000e-01 0.000000e+00
2.359500e+00 5.130000e-01 0.000000e+00
2.541000e+00 5.130000e-01 0.000000e+00
2.722500e+00 5.130000e-01 0.000000e+00
2.904000e+00 5.130000e-01 0.000000e+00
2.904000e+00 0.000000e+00 0.000000e+00
3.085500e+00 0.000000e+00 0.000000e+00
3.267000e+00 0.000000e+00 0.000000e+00
3.448500e+00 0.000000e+00 0.000000e+00
3.630000e+00 0.000000e+00 0.000000e+00
2.904000e+00 1.282500e-01 0.000000e+00
3.085500e+00 1.282500e-01 0.000000e+00
3.267000e+00 1.282500e-01 0.000000e+00
3.448500e+00 1.282500e-01 0.000000e+00
3.630000e+00 1.282500e-01 0.000000e+00
2.904000e+00 2.565000e-01 0.000000e+00
3.085500e+00 2.565000e-01 0.000000e+00
3.267000e+00 2.565000e-01 0.000000e+00
3.448500e+00 2.565000e-01 0.000000e+00
3.630000e+00 2.565000e-01 0.000000e+00
2.904000e+00 3.847500e-01 0.000000e+00
3.085500e+00 3.847500e-01 0.000000e+00
3.267000e+00 3.847500e-01 0.000000e+00
3.448500e+00 3.847500e-01 0.000000e+00
3.630000e+00 3.847500e-01 0.000000e+00
2.904000e+00 5.130000e-01 0.000000e+00
[...]
<PointData>
<DataArray type="Float32" Name="V1" format="ascii">
0.000000e+00
0.000000e+00
0.000000e+00
0.000000e+00
0.000000e+00
1.264110e-02
1.099600e-02
9.650330e-03
8.604050e-03
7.857180e-03
2.028400e-02
1.817190e-02
1.638630e-02
1.492740e-02
1.379520e-02
2.292870e-02
2.152750e-02
2.020810e-02
1.897020e-02
1.781390e-02
2.057510e-02
2.106300e-02
2.111550e-02
2.073230e-02
1.991350e-02
0.000000e+00
0.000000e+00
0.000000e+00
0.000000e+00
0.000000e+00
7.857180e-03
6.813930e-03
6.094420e-03
5.698640e-03
5.626600e-03
1.379520e-02
1.220290e-02
1.103520e-02
1.029190e-02
9.973070e-03
1.781390e-02
1.616710e-02
1.482230e-02
1.377980e-02
1.303940e-02
1.991350e-02
1.870620e-02
1.745580e-02
1.616230e-02
1.482560e-02
0.000000e+00
0.000000e+00
0.000000e+00
0.000000e+00
0.000000e+00
5.626600e-03
5.608540e-03
5.631990e-03
5.696960e-03
5.803440e-03
9.973070e-03
9.751770e-03
9.548270e-03
9.362570e-03
9.194660e-03
1.303940e-02
1.242970e-02
1.174880e-02
1.099680e-02
1.017370e-02
1.482560e-02
1.364230e-02
1.223370e-02
1.059970e-02
8.740500e-03
0.000000e+00
0.000000e+00
0.000000e+00
0.000000e+00
0.000000e+00
5.803440e-03
4.474000e-03
3.959970e-03
4.261370e-03
5.378200e-03
9.194660e-03
6.604630e-03
5.059850e-03
4.560310e-03
5.106020e-03
1.017370e-02
6.391910e-03
3.299620e-03
8.967990e-04
-8.165380e-04
8.740500e-03
3.835830e-03
-1.320720e-03
-6.729150e-03
-1.238950e-02
0.000000e+00
0.000000e+00
0.000000e+00
0.000000e+00
0.000000e+00
5.378200e-03
-3.028330e-03
-1.294590e-02
-2.437450e-02
-3.731410e-02
5.106020e-03
-9.797040e-03
-2.576620e-02
-4.280150e-02
-6.090290e-02
-8.165380e-04
-2.030620e-02
-3.846100e-02
-5.528100e-02
-7.076620e-02
-1.238950e-02
-3.455570e-02
-5.103020e-02
-6.181300e-02
-6.690410e-02
0.000000e+00
0.000000e+00
0.000000e+00
0.000000e+00
0.000000e+00
-3.731410e-02
-3.456820e-02
-3.124590e-02
-2.734730e-02
-2.287220e-02
-6.090290e-02
-5.583520e-02
-4.978420e-02
-4.274970e-02
-3.473180e-02
-7.076620e-02
-6.380100e-02
-5.561480e-02
-4.620740e-02
-3.557890e-02
-6.690410e-02
-5.846560e-02
-4.873760e-02
-3.772020e-02
-2.541340e-02
0.000000e+00
0.000000e+00
0.000000e+00
0.000000e+00
0.000000e+00
-2.287220e-02
-1.897330e-02
-1.492680e-02
-1.073250e-02
-6.390580e-03
-3.473180e-02
-2.890700e-02
-2.279480e-02
-1.639540e-02
-9.708630e-03
-3.557890e-02
-2.980100e-02
-2.360420e-02
-1.698860e-02
-9.954140e-03
-2.541340e-02
-2.165530e-02
-1.735490e-02
-1.251220e-02
-7.127120e-03
0.000000e+00
0.000000e+00
0.000000e+00
0.000000e+00
0.000000e+00
-6.390580e-03
-1.694900e-03
1.763870e-03
3.985730e-03
4.970670e-03
-9.708630e-03
-2.261710e-03
3.281550e-03
6.921170e-03
8.657140e-03
-9.954140e-03
-1.700440e-03
4.553050e-03
8.806340e-03
1.105940e-02
-7.127120e-03
-1.108730e-05
5.578360e-03
9.641230e-03
1.217750e-02
0.000000e+00
0.000000e+00
0.000000e+00
0.000000e+00
0.000000e+00
4.970670e-03
6.107180e-03
7.083560e-03
7.899810e-03
8.555930e-03
8.657140e-03
1.051300e-02
1.210570e-02
1.343520e-02
1.450150e-02
1.105940e-02
1.321750e-02
1.506630e-02
1.660610e-02
1.783670e-02
1.217750e-02
1.422060e-02
1.596560e-02
1.741250e-02
1.856150e-02
0.000000e+00
0.000000e+00
0.000000e+00
0.000000e+00
0.000000e+00
8.555930e-03
9.203320e-03
9.859950e-03
1.052580e-02
1.120090e-02
1.450150e-02
1.571900e-02
1.687610e-02
1.797290e-02
1.900930e-02
1.783670e-02
1.954700e-02
2.104850e-02
2.234120e-02
2.342520e-02
1.856150e-02
2.068730e-02
2.237700e-02
2.363080e-02
2.444850e-02
2.057510e-02
2.106300e-02
2.111550e-02
2.073230e-02
1.991350e-02
2.078850e-02
2.096170e-02
2.093600e-02
2.071160e-02
2.028830e-02
2.103660e-02
2.095360e-02
2.083090e-02
2.066860e-02
2.046650e-02
2.131930e-02
2.103880e-02
2.080010e-02
2.060320e-02
2.044800e-02
2.163650e-02
2.121730e-02
2.084360e-02
2.051550e-02
2.023280e-02
1.991350e-02
1.870620e-02
1.745580e-02
1.616230e-02
1.482560e-02
2.028830e-02
1.948190e-02
1.847070e-02
1.725490e-02
1.583450e-02
2.046650e-02
1.994870e-02
1.913960e-02
1.803910e-02
1.664730e-02
2.044800e-02
2.010680e-02
1.946240e-02
1.851480e-02
1.726410e-02
2.023280e-02
1.995610e-02
1.943920e-02
1.868220e-02
1.768490e-02
1.482560e-02
1.364230e-02
1.223370e-02
1.059970e-02
8.740500e-03
1.583450e-02
1.364730e-02
1.180010e-02
1.029300e-02
9.125980e-03
1.664730e-02
1.346600e-02
1.136090e-02
1.033180e-02
1.037880e-02
1.726410e-02
1.309860e-02
1.091590e-02
1.071600e-02
1.249890e-02
1.768490e-02
1.254490e-02
1.046520e-02
1.144560e-02
1.548630e-02
8.740500e-03
3.835830e-03
-1.320720e-03
-6.729150e-03
-1.238950e-02
9.125980e-03
2.057230e-03
-5.047050e-03
-1.218690e-02
-1.936220e-02
1.037880e-02
1.350460e-03
-7.094780e-03
-1.495700e-02
-2.223610e-02
1.249890e-02
1.715520e-03
-7.463930e-03
-1.503950e-02
-2.101110e-02
1.548630e-02
3.152410e-03
-6.154480e-03
-1.243440e-02
-1.568720e-02
-1.238950e-02
-3.455570e-02
-5.103020e-02
-6.181300e-02
-6.690410e-02
-1.936220e-02
-3.718580e-02
-5.102980e-02
-6.089430e-02
-6.677930e-02
-2.223610e-02
-3.475570e-02
-4.480850e-02
-5.239450e-02
-5.751380e-02
-2.101110e-02
-2.726530e-02
-3.236620e-02
-3.631360e-02
-3.910770e-02
-1.568720e-02
-1.471470e-02
-1.370280e-02
-1.265160e-02
-1.156100e-02
-6.690410e-02
-5.846560e-02
-4.873760e-02
-3.772020e-02
-2.541340e-02
-6.677930e-02
-5.819970e-02
-4.780680e-02
-3.560060e-02
-2.158110e-02
-5.751380e-02
-4.981950e-02
-4.022370e-02
-2.872630e-02
-1.532730e-02
-3.910770e-02
-3.332520e-02
-2.598840e-02
-1.709740e-02
-6.651990e-03
-1.156100e-02
-8.716710e-03
-5.100980e-03
-7.137810e-04
4.444880e-03
-2.541340e-02
-2.165530e-02
-1.735490e-02
-1.251220e-02
-7.127120e-03
-2.158110e-02
-1.756530e-02
-1.359870e-02
-9.681240e-03
-5.813020e-03
-1.532730e-02
-1.142850e-02
-8.101450e-03
-5.346220e-03
-3.162810e-03
-6.651990e-03
-3.244890e-03
-8.632650e-04
4.928730e-04
8.235270e-04
4.444880e-03
6.985500e-03
8.115890e-03
7.836050e-03
6.145980e-03
-7.127120e-03
-1.108730e-05
5.578360e-03
9.641230e-03
1.217750e-02
-5.813020e-03
1.780890e-03
7.542770e-03
1.147260e-02
1.357040e-02
-3.162810e-03
4.226650e-03
9.703710e-03
1.326840e-02
1.492060e-02
8.235270e-04
7.326200e-03
1.206120e-02
1.502850e-02
1.622810e-02
6.145980e-03
1.107950e-02
1.461520e-02
1.675290e-02
1.749280e-02
1.217750e-02
1.422060e-02
1.596560e-02
1.741250e-02
1.856150e-02
1.357040e-02
1.527060e-02
1.672750e-02
1.794090e-02
1.891100e-02
1.492060e-02
1.630450e-02
1.748940e-02
1.847530e-02
1.926220e-02
1.622810e-02
1.732210e-02
1.825140e-02
1.901570e-02
1.961530e-02
1.749280e-02
1.832350e-02
1.901340e-02
1.956220e-02
1.997010e-02
1.856150e-02
2.068730e-02
2.237700e-02
2.363080e-02
2.444850e-02
1.891100e-02
2.116240e-02
2.290580e-02
2.414120e-02
2.486860e-02
1.926220e-02
2.156160e-02
2.329320e-02
2.445700e-02
2.505310e-02
1.961530e-02
2.188480e-02
2.353910e-02
2.457820e-02
2.500190e-02
1.997010e-02
2.213210e-02
2.364360e-02
2.450470e-02
2.471520e-02
2.163650e-02
2.121730e-02
2.084360e-02
2.051550e-02
2.023280e-02
2.197900e-02
2.155430e-02
2.118500e-02
2.087120e-02
2.061270e-02
2.233590e-02
2.193280e-02
2.158970e-02
2.130670e-02
2.108380e-02
2.270730e-02
2.235270e-02
2.205770e-02
2.182220e-02
2.164620e-02
2.309330e-02
2.281420e-02
2.258890e-02
2.241750e-02
2.229990e-02
2.023280e-02
1.995610e-02
1.943920e-02
1.868220e-02
1.768490e-02
2.061270e-02
2.011070e-02
1.961340e-02
1.912090e-02
1.863310e-02
2.108380e-02
2.039220e-02
1.990960e-02
1.963610e-02
1.957150e-02
2.164620e-02
2.080070e-02
2.032780e-02
2.022770e-02
2.050020e-02
2.229990e-02
2.133610e-02
2.086800e-02
2.089570e-02
2.141920e-02
1.768490e-02
1.254490e-02
1.046520e-02
1.144560e-02
1.548630e-02
1.863310e-02
1.312410e-02
1.121540e-02
1.290710e-02
1.819920e-02
1.957150e-02
1.421470e-02
1.255120e-02
1.458110e-02
2.030430e-02
2.050020e-02
1.581680e-02
1.447260e-02
1.646760e-02
2.180180e-02
2.141920e-02
1.793030e-02
1.697950e-02
1.856660e-02
2.269170e-02
1.548630e-02
3.152410e-03
-6.154480e-03
-1.243440e-02
-1.568720e-02
1.819920e-02
6.963130e-03
-1.167150e-03
-6.191670e-03
-8.110450e-03
2.030430e-02
1.137060e-02
4.978280e-03
1.127330e-03
-1.822430e-04
2.180180e-02
1.637490e-02
1.228180e-02
9.522640e-03
8.097390e-03
2.269170e-02
2.197590e-02
2.074340e-02
1.899430e-02
1.672850e-02
-1.568720e-02
-1.471470e-02
-1.370280e-02
-1.265160e-02
-1.156100e-02
-8.110450e-03
5.362990e-04
8.086920e-03
1.454140e-02
1.989980e-02
-1.822430e-04
1.345360e-02
2.523460e-02
3.516070e-02
4.323190e-02
8.097390e-03
2.403720e-02
3.774010e-02
4.920620e-02
5.843550e-02
1.672850e-02
3.228700e-02
4.560360e-02
5.667810e-02
6.551050e-02
-1.156100e-02
-8.716710e-03
-5.100980e-03
-7.137810e-04
4.444880e-03
1.989980e-02
1.521470e-02
1.250620e-02
1.177430e-02
1.301900e-02
4.323190e-02
3.416400e-02
2.753410e-02
2.334230e-02
2.158850e-02
5.843550e-02
4.813120e-02
3.998270e-02
3.399010e-02
3.015340e-02
6.551050e-02
5.711620e-02
4.985200e-02
4.371780e-02
3.871360e-02
4.444880e-03
6.985500e-03
8.115890e-03
7.836050e-03
6.145980e-03
1.301900e-02
1.461850e-02
1.489050e-02
1.383500e-02
1.145190e-02
2.158850e-02
2.191220e-02
2.112360e-02
1.922270e-02
1.620950e-02
3.015340e-02
2.886660e-02
2.681520e-02
2.399920e-02
2.041860e-02
3.871360e-02
3.548180e-02
3.196540e-02
2.816460e-02
2.407940e-02
6.145980e-03
1.107950e-02
1.461520e-02
1.675290e-02
1.749280e-02
1.145190e-02
1.448480e-02
1.667520e-02
1.802300e-02
1.852830e-02
1.620950e-02
1.763770e-02
1.867860e-02
1.933200e-02
1.959810e-02
2.041860e-02
2.053820e-02
2.062540e-02
2.068000e-02
2.070220e-02
2.407940e-02
2.318640e-02
2.251560e-02
2.206700e-02
2.184050e-02
1.749280e-02
1.832350e-02
1.901340e-02
1.956220e-02
1.997010e-02
1.852830e-02
1.938000e-02
2.002640e-02
2.046740e-02
2.070310e-02
1.959810e-02
2.041960e-02
2.099670e-02
2.132930e-02
2.141740e-02
2.070220e-02
2.144230e-02
2.192410e-02
2.214770e-02
2.211290e-02
2.184050e-02
2.244810e-02
2.280880e-02
2.292270e-02
2.278970e-02
1.997010e-02
2.213210e-02
2.364360e-02
2.450470e-02
2.471520e-02
2.070310e-02
2.247570e-02
2.373510e-02
2.448120e-02
2.471420e-02
2.141740e-02
2.281960e-02
2.383830e-02
2.447330e-02
2.472490e-02
2.211290e-02
2.316390e-02
2.395320e-02
2.448100e-02
2.474720e-02
2.278970e-02
2.350850e-02
2.408000e-02
2.450420e-02
2.478120e-02
2.309330e-02
2.281420e-02
2.258890e-02
2.241750e-02
2.229990e-02
2.348320e-02
2.323580e-02
2.305640e-02
2.294500e-02
2.290160e-02
2.386930e-02
2.365020e-02
2.351170e-02
2.345380e-02
2.347650e-02
2.425160e-02
2.405720e-02
2.395460e-02
2.394370e-02
2.402460e-02
2.463000e-02
2.445690e-02
2.438520e-02
2.441480e-02
2.454580e-02
2.229990e-02
2.133610e-02
2.086800e-02
2.089570e-02
2.141920e-02
2.290160e-02
2.202300e-02
2.161460e-02
2.167640e-02
2.220840e-02
2.347650e-02
2.271380e-02
2.238420e-02
2.248760e-02
2.302400e-02
2.402460e-02
2.340850e-02
2.317670e-02
2.332910e-02
2.386580e-02
2.454580e-02
2.410700e-02
2.399210e-02
2.420110e-02
2.473400e-02
2.141920e-02
1.793030e-02
1.697950e-02
1.856660e-02
2.269170e-02
2.220840e-02
2.003270e-02
1.958470e-02
2.086430e-02
2.387160e-02
2.302400e-02
2.188600e-02
2.186350e-02
2.295660e-02
2.516520e-02
2.386580e-02
2.349010e-02
2.381600e-02
2.484340e-02
2.657240e-02
2.473400e-02
2.484510e-02
2.544200e-02
2.652480e-02
2.809340e-02
2.269170e-02
2.197590e-02
2.074340e-02
1.899430e-02
1.672850e-02
2.387160e-02
2.570960e-02
2.684700e-02
2.728390e-02
2.702010e-02
2.516520e-02
2.853210e-02
3.121590e-02
3.321650e-02
3.453400e-02
2.657240e-02
3.044340e-02
3.385000e-02
3.679220e-02
3.927010e-02
2.809340e-02
3.144340e-02
3.474930e-02
3.801090e-02
4.122830e-02
1.672850e-02
3.228700e-02
4.560360e-02
5.667810e-02
6.551050e-02
2.702010e-02
3.999430e-02
5.127080e-02
6.084970e-02
6.873080e-02
3.453400e-02
4.518140e-02
5.449470e-02
6.247380e-02
6.911880e-02
3.927010e-02
4.784830e-02
5.527510e-02
6.155060e-02
6.667470e-02
4.122830e-02
4.799490e-02
5.361200e-02
5.807990e-02
6.139830e-02
6.551050e-02
5.711620e-02
4.985200e-02
4.371780e-02
3.871360e-02
6.873080e-02
6.133940e-02
5.444950e-02
4.806110e-02
4.217430e-02
6.911880e-02
6.283580e-02
5.666190e-02
5.059730e-02
4.464180e-02
6.667470e-02
6.160540e-02
5.648930e-02
5.132630e-02
4.611630e-02
6.139830e-02
5.764840e-02
5.393170e-02
5.024810e-02
4.659770e-02
3.871360e-02
3.548180e-02
3.196540e-02
2.816460e-02
2.407940e-02
4.217430e-02
3.800010e-02
3.395850e-02
3.004930e-02
2.627260e-02
4.464180e-02
3.994980e-02
3.564390e-02
3.172420e-02
2.819050e-02
4.611630e-02
4.133090e-02
3.702180e-02
3.318920e-02
2.983300e-02
4.659770e-02
4.214320e-02
3.809210e-02
3.444440e-02
3.120000e-02
2.407940e-02
2.318640e-02
2.251560e-02
2.206700e-02
2.184050e-02
2.627260e-02
2.521240e-02
2.434100e-02
2.365830e-02
2.316430e-02
2.819050e-02
2.697640e-02
2.593450e-02
2.506470e-02
2.436720e-02
2.983300e-02
2.847820e-02
2.729600e-02
2.628630e-02
2.544920e-02
3.120000e-02
2.971800e-02
2.842570e-02
2.732310e-02
2.641020e-02
2.184050e-02
2.244810e-02
2.280880e-02
2.292270e-02
2.278970e-02
2.316430e-02
2.343840e-02
2.355160e-02
2.350410e-02
2.329570e-02
2.436720e-02
2.434670e-02
2.424160e-02
2.405190e-02
2.377750e-02
2.544920e-02
2.517310e-02
2.487870e-02
2.456610e-02
2.423510e-02
2.641020e-02
2.591750e-02
2.546300e-02
2.504660e-02
2.466850e-02
2.278970e-02
2.350850e-02
2.408000e-02
2.450420e-02
2.478120e-02
2.329570e-02
2.390580e-02
2.436310e-02
2.466760e-02
2.481930e-02
2.377750e-02
2.428740e-02
2.463860e-02
2.483100e-02
2.486460e-02
2.423510e-02
2.465320e-02
2.490630e-02
2.499420e-02
2.491710e-02
2.466850e-02
2.500330e-02
2.516620e-02
2.515730e-02
2.497660e-02
2.463000e-02
2.445690e-02
2.438520e-02
2.441480e-02
2.454580e-02
2.499690e-02
2.486300e-02
2.482580e-02
2.488550e-02
2.504200e-02
2.534870e-02
2.525600e-02
2.525320e-02
2.534010e-02
2.551680e-02
2.568540e-02
2.563610e-02
2.566720e-02
2.577850e-02
2.597020e-02
2.600690e-02
2.600320e-02
2.606780e-02
2.620090e-02
2.640230e-02
2.454580e-02
2.410700e-02
2.399210e-02
2.420110e-02
2.473400e-02
2.504200e-02
2.475350e-02
2.474170e-02
2.500640e-02
2.554770e-02
2.551680e-02
2.535680e-02
2.543100e-02
2.573930e-02
2.628170e-02
2.597020e-02
2.591690e-02
2.606010e-02
2.639970e-02
2.693590e-02
2.640230e-02
2.643370e-02
2.662890e-02
2.698790e-02
2.751050e-02
2.473400e-02
2.484510e-02
2.544200e-02
2.652480e-02
2.809340e-02
2.554770e-02
2.591220e-02
2.664110e-02
2.773430e-02
2.919190e-02
2.628170e-02
2.684260e-02
2.766670e-02
2.875390e-02
3.010420e-02
2.693590e-02
2.763630e-02
2.851890e-02
2.958350e-02
3.083030e-02
2.751050e-02
2.829330e-02
2.919750e-02
3.022320e-02
3.137030e-02
2.809340e-02
3.144340e-02
3.474930e-02
3.801090e-02
4.122830e-02
2.919190e-02
3.230960e-02
3.534200e-02
3.828910e-02
4.115090e-02
3.010420e-02
3.295570e-02
3.569820e-02
3.833140e-02
4.085550e-02
3.083030e-02
3.338200e-02
3.581780e-02
3.813780e-02
4.034200e-02
3.137030e-02
3.358830e-02
3.570100e-02
3.770840e-02
3.961050e-02
4.122830e-02
4.799490e-02
5.361200e-02
5.807990e-02
6.139830e-02
4.115090e-02
4.663420e-02
5.112570e-02
5.462540e-02
5.713320e-02
4.085550e-02
4.520770e-02
4.873030e-02
5.142330e-02
5.328670e-02
4.034200e-02
4.371530e-02
4.642580e-02
4.847370e-02
4.985890e-02
3.961050e-02
4.215690e-02
4.421230e-02
4.577650e-02
4.684980e-02
6.139830e-02
5.764840e-02
5.393170e-02
5.024810e-02
4.659770e-02
5.713320e-02
5.423190e-02
5.129100e-02
4.831060e-02
4.529070e-02
5.328670e-02
5.113230e-02
4.888140e-02
4.653400e-02
4.409030e-02
4.985890e-02
4.834960e-02
4.670280e-02
4.491840e-02
4.299650e-02
4.684980e-02
4.588400e-02
4.475530e-02
4.346370e-02
4.200920e-02
4.659770e-02
4.214320e-02
3.809210e-02
3.444440e-02
3.120000e-02
4.529070e-02
4.138300e-02
3.785630e-02
3.471060e-02
3.194600e-02
4.409030e-02
4.072010e-02
3.768170e-02
3.497490e-02
3.259980e-02
4.299650e-02
4.015460e-02
3.756810e-02
3.523710e-02
3.316140e-02
4.200920e-02
3.968630e-02
3.751570e-02
3.549720e-02
3.363080e-02
3.120000e-02
2.971800e-02
2.842570e-02
2.732310e-02
2.641020e-02
3.194600e-02
3.051780e-02
2.924430e-02
2.812540e-02
2.716120e-02
3.259980e-02
3.118730e-02
2.991390e-02
2.877960e-02
2.778440e-02
3.316140e-02
3.172640e-02
3.043450e-02
2.928560e-02
2.827970e-02
3.363080e-02
3.213520e-02
3.080600e-02
2.964340e-02
2.864710e-02
2.641020e-02
2.591750e-02
2.546300e-02
2.504660e-02
2.466850e-02
2.716120e-02
2.658640e-02
2.606600e-02
2.560000e-02
2.518850e-02
2.778440e-02
2.715400e-02
2.658920e-02
2.609000e-02
2.565640e-02
2.827970e-02
2.762040e-02
2.703270e-02
2.651650e-02
2.607190e-02
2.864710e-02
2.798560e-02
2.739640e-02
2.687960e-02
2.643530e-02
2.466850e-02
2.500330e-02
2.516620e-02
2.515730e-02
2.497660e-02
2.518850e-02
2.533640e-02
2.537010e-02
2.528950e-02
2.509480e-02
2.565640e-02
2.563730e-02
2.555760e-02
2.541730e-02
2.521640e-02
2.607190e-02
2.590570e-02
2.572860e-02
2.554050e-02
2.534140e-02
2.643530e-02
2.614190e-02
2.588320e-02
2.565930e-02
2.547000e-02
2.600690e-02
2.600320e-02
2.606780e-02
2.620090e-02
2.640230e-02
2.630990e-02
2.634320e-02
2.643650e-02
2.659000e-02
2.680360e-02
2.659390e-02
2.666090e-02
2.678000e-02
2.695140e-02
2.717500e-02
2.685910e-02
2.695640e-02
2.709840e-02
2.728510e-02
2.751640e-02
2.710540e-02
2.722970e-02
2.739150e-02
2.759100e-02
2.782800e-02
2.640230e-02
2.643370e-02
2.662890e-02
2.698790e-02
2.751050e-02
2.680360e-02
2.689170e-02
2.712280e-02
2.749690e-02
2.801390e-02
2.717500e-02
2.731130e-02
2.757080e-02
2.795350e-02
2.845930e-02
2.751640e-02
2.769270e-02
2.797310e-02
2.835780e-02
2.884660e-02
2.782800e-02
2.803570e-02
2.832960e-02
2.870970e-02
2.917600e-02
2.751050e-02
2.829330e-02
2.919750e-02
3.022320e-02
3.137030e-02
2.801390e-02
2.880760e-02
2.969960e-02
3.068970e-02
3.177810e-02
2.845930e-02
2.924390e-02
3.010670e-02
3.104770e-02
3.206680e-02
2.884660e-02
2.960220e-02
3.041910e-02
3.129710e-02
3.223630e-02
2.917600e-02
2.988260e-02
3.063650e-02
3.143790e-02
3.228660e-02
3.137030e-02
3.358830e-02
3.570100e-02
3.770840e-02
3.961050e-02
3.177810e-02
3.371700e-02
3.555120e-02
3.728060e-02
3.890510e-02
3.206680e-02
3.375810e-02
3.534640e-02
3.683150e-02
3.821360e-02
3.223630e-02
3.371160e-02
3.508660e-02
3.636140e-02
3.753600e-02
3.228660e-02
3.357730e-02
3.477180e-02
3.587010e-02
3.687220e-02
3.961050e-02
4.215690e-02
4.421230e-02
4.577650e-02
4.684980e-02
3.890510e-02
4.101710e-02
4.270250e-02
4.396160e-02
4.479420e-02
3.821360e-02
3.994880e-02
4.132030e-02
4.232810e-02
4.297220e-02
3.753600e-02
3.895210e-02
4.006540e-02
4.087590e-02
4.138370e-02
3.687220e-02
3.802700e-02
3.893800e-02
3.960520e-02
4.002870e-02
4.684980e-02
4.588400e-02
4.475530e-02
4.346370e-02
4.200920e-02
4.479420e-02
4.400180e-02
4.306300e-02
4.197790e-02
4.074640e-02
4.297220e-02
4.234150e-02
4.157750e-02
4.068010e-02
3.964920e-02
4.138370e-02
4.090330e-02
4.029880e-02
3.957010e-02
3.871740e-02
4.002870e-02
3.968690e-02
3.922670e-02
3.864820e-02
3.795120e-02
4.200920e-02
3.968630e-02
3.751570e-02
3.549720e-02
3.363080e-02
4.074640e-02
3.875860e-02
3.690330e-02
3.518050e-02
3.359020e-02
3.964920e-02
3.796190e-02
3.638160e-02
3.490820e-02
3.354190e-02
3.871740e-02
3.729620e-02
3.595050e-02
3.468040e-02
3.348590e-02
3.795120e-02
3.676150e-02
3.561010e-02
3.449710e-02
3.342230e-02
3.363080e-02
3.213520e-02
3.080600e-02
2.964340e-02
2.864710e-02
3.359020e-02
3.224070e-02
3.102290e-02
2.993690e-02
2.898270e-02
3.354190e-02
3.231140e-02
3.118780e-02
3.017120e-02
2.926150e-02
3.348590e-02
3.234730e-02
3.130070e-02
3.034620e-02
2.948370e-02
3.342230e-02
3.234850e-02
3.136170e-02
3.046190e-02
2.964920e-02
2.864710e-02
2.798560e-02
2.739640e-02
2.687960e-02
2.643530e-02
2.898270e-02
2.831640e-02
2.771900e-02
2.719030e-02
2.673030e-02
2.926150e-02
2.859490e-02
2.799310e-02
2.745600e-02
2.698380e-02
2.948370e-02
2.882100e-02
2.821870e-02
2.767700e-02
2.719570e-02
2.964920e-02
2.899460e-02
2.839590e-02
2.785300e-02
2.736600e-02
2.643530e-02
2.614190e-02
2.588320e-02
2.565930e-02
2.547000e-02
2.673030e-02
2.638880e-02
2.608680e-02
2.582450e-02
2.560190e-02
2.698380e-02
2.660570e-02
2.627000e-02
2.597670e-02
2.572570e-02
2.719570e-02
2.679280e-02
2.643290e-02
2.611570e-02
2.584140e-02
2.736600e-02
2.695010e-02
2.657530e-02
2.624160e-02
2.594910e-02
2.710540e-02
2.722970e-02
2.739150e-02
2.759100e-02
2.782800e-02
2.733260e-02
2.747510e-02
2.765050e-02
2.785900e-02
2.810050e-02
2.754220e-02
2.770030e-02
2.788690e-02
2.810190e-02
2.834540e-02
2.773410e-02
2.790550e-02
2.810070e-02
2.831980e-02
2.856270e-02