<?xml version="1.0"?>
<VTKFile type="UnstructuredGrid" version="0.1" byte_order="LittleEndian" compressor="vtkZLibDataCompressor">
<UnstructuredGrid>
<Piece NumberOfPoints="2500" NumberOfCells="1600">
<Points>
<DataArray type="Float32" NumberOfComponents="3" format="ascii">
-3.630000e+00 0.000000e+00 0.000000e+00
-3.448500e+00 0.000000e+00 0.000000e+00
-3.267000e+00 0.000000e+00 0.000000e+00
-3.085500e+00 0.000000e+00 0.000000e+00
-2.904000e+00 0.000000e+00 0.000000e+00
-3.630000e+00 1.282500e-01 0.000000e+00
-3.448500e+00 1.282500e-01 0.000000e+00
-3.267000e+00 1.282500e-01 0.000000e+00
-3.085500e+00 1.282500e-01 0.000000e+00
-2.904000e+00 1.282500e-01 0.000000e+00
-3.630000e+00 2.565000e-01 0.000000e+00
-3.448500e+00 2.565000e-01 0.000000e+00
-3.267000e+00 2.565000e-01 0.000000e+00
-3.085500e+00 2.565000e-01 0.000000e+00
-2.904000e+00 2.565000e-01 0.000000e+00
-3.630000e+00 3.847500e-01 0.000000e+00
-3.448500e+00 3.847500e-01 0.000000e+00
-3.267000e+00 3.847500e-01 0.000000e+00
-3.085500e+00 3.847500e-01 0.000000e+00
-2.904000e+00 3.847500e-01 0.000000e+00
-3.630000e+00 5.130000e-01 0.000000e+00
-3.448500e+00 5.130000e-01 0.000000e+00
-3.267000e+00 5.130000e-01 0.000000e+00
-3.085500e+00 5.130000e-01 0.000000e+00
-2.904000e+00 5.130000e-01 0.000000e+00
-2.904000e+00 0.000000e+00 0.000000e+00
-2.722500e+00 0.000000e+00 0.000000e+00
-2.541000e+00 0.000000e+00 0.000000e+00
-2.359500e+00 0.000000e+00 0.000000e+00
-2.178000e+00 0.000000e+00 0.000000e+00
-2.904000e+00 1.282500e-01 0.000000e+00
-2.722500e+00 1.282500e-01 0.000000e+00
-2.541000e+00 1.282500e-01 0.000000e+00
-2.359500e+00 1.282500e-01 0.000000e+00
-2.178000e+00 1.282500e-01 0.000000e+00
-2.904000e+00 2.565000e-01 0.000000e+00
-2.722500e+00 2.565000e-01 0.000000e+00
-2.541000e+00 2.565000e-01 0.000000e+00
-2.359500e+00 2.565000e-01 0.000000e+00
-2.178000e+00 2.565000e-01 0.000000e+00
-2.904000e+00 3.847500e-01 0.000000e+00
-2.722500e+00 3.847500e-01 0.000000e+00
-2.541000e+00 3.847500e-01 0.000000e+00
-2.359500e+00 3.847500e-01 0.000000e+00
-2.178000e+00 3.847500e-01 0.000000e+00
-2.904000e+00 5.130000e-01 0.000000e+00
-2.722500e+00 5.130000e-01 0.000000e+00
-2.541000e+00 5.130000e-01 0.000000e+00
-2.359500e+00 5.130000e-01 0.000000e+00
-2.178000e+00 5.130000e-01 0.000000e+00
-2.178000e+00 0.000000e+00 0.000000e+00
-1.996500e+00 0.000000e+00 0.000000e+00
-1.815000e+00 0.000000e+00 0.000000e+00
-1.633500e+00 0.000000e+00 0.000000e+00
-1.452000e+00 0.000000e+00 0.000000e+00
-2.178000e+00 1.282500e-01 0.000000e+00
-1.996500e+00 1.282500e-01 0.000000e+00
-1.815000e+00 1.282500e-01 0.000000e+00
-1.633500e+00 1.282500e-01 0.000000e+00
-1.452000e+00 1.282500e-01 0.000000e+00
-2.178000e+00 2.565000e-01 0.000000e+00
-1.996500e+00 2.565000e-01 0.000000e+00
-1.815000e+00 2.565000e-01 0.000000e+00
-1.633500e+00 2.565000e-01 0.000000e+00
-1.452000e+00 2.565000e-01 0.000000e+00
-2.178000e+00 3.847500e-01 0.000000e+00
-1.996500e+00 3.847500e-01 0.000000e+00
-1.815000e+00 3.847500e-01 0.000000e+00
-1.633500e+00 3.847500e-01 0.000000e+00
-1.452000e+00 3.847500e-01 0.000000e+00
-2.178000e+00 5.130000e-01 0.000000e+00
-1.996500e+00 5.130000e-01 0.000000e+00
-1.815000e+00 5.130000e-01 0.000000e+00
-1.633500e+00 5.130000e-01 0.000000e+00
-1.452000e+00 5.130000e-01 0.000000e+00
-1.452000e+00 0.000000e+00 0.000000e+00
-1.270500e+00 0.000000e+00 0.000000e+00
-1.089000e+00 0.000000e+00 0.000000e+00
-9.075000e-01 0.000000e+00 0.000000e+00
-7.260000e-01 0.000000e+00 0.000000e+00
-1.452000e+00 1.282500e-01 0.000000e+00
-1.270500e+00 1.282500e-01 0.000000e+00
-1.089000e+00 1.282500e-01 0.000000e+00
-9.075000e-01 1.282500e-01 0.000000e+00
-7.260000e-01 1.282500e-01 0.000000e+00
-1.452000e+00 2.565000e-01 0.000000e+00
-1.270500e+00 2.565000e-01 0.000000e+00
-1.089000e+00 2.565000e-01 0.000000e+00
-9.075000e-01 2.565000e-01 0.000000e+00
-7.260000e-01 2.565000e-01 0.000000e+00
-1.452000e+00 3.847500e-01 0.000000e+00
-1.270500e+00 3.847500e-01 0.000000e+00
-1.089000e+00 3.847500e-01 0.000000e+00
-9.075000e-01 3.847500e-01 0.000000e+00
-7.260000e-01 3.847500e-01 0.000000e+00
-1.452000e+00 5.130000e-01 0.000000e+00
-1.270500e+00 5.130000e-01 0.000000e+00
-1.089000e+00 5.130000e-01 0.000000e+00
-9.075000e-01 5.130000e-01 0.000000e+00
-7.260000e-01 5.130000e-01 0.000000e+00
-7.260000e-01 0.000000e+00 0.000000e+00
-5.445000e-01 0.000000e+00 0.000000e+00
-3.630000e-01 0.000000e+00 0.000000e+00
-1.815000e-01 0.000000e+00 0.000000e+00
0.000000e+00 0.000000e+00 0.000000e+00
-7.260000e-01 1.282500e-01 0.000000e+00
-5.445000e-01 1.282500e-01 0.000000e+00
-3.630000e-01 1.282500e-01 0.000000e+00
-1.815000e-01 1.282500e-01 0.000000e+00
0.000000e+00 1.282500e-01 0.000000e+00
-7.260000e-01 2.565000e-01 0.000000e+00
-5.445000e-01 2.565000e-01 0.000000e+00
-3.630000e-01 2.565000e-01 0.000000e+00
-1.815000e-01 2.565000e-01 0.000000e+00
0.000000e+00 2.565000e-01 0.000000e+00
-7.260000e-01 3.847500e-01 0.000000e+00
-5.445000e-01 3.847500e-01 0.000000e+00
-3.630000e-01 3.847500e-01 0.000000e+00
-1.815000e-01 3.847500e-01 0.000000e+00
0.000000e+00 3.847500e-01 0.000000e+00
-7.260000e-01 5.130000e-01 0.000000e+00
-5.445000e-01 5.130000e-01 0.000000e+00
-3.630000e-01 5.130000e-01 0.000000e+00
-1.815000e-01 5.130000e-01 0.000000e+00
0.000000e+00 5.130000e-01 0.000000e+00
0.000000e+00 0.000000e+00 0.000000e+00
1.815000e-01 0.000000e+00 0.000000e+00
3.630000e-01 0.000000e+00 0.000000e+00
5.445000e-01 0.000000e+00 0.000000e+00
7.260000e-01 0.000000e+00 0.000000e+00
0.000000e+00 1.282500e-01 0.000000e+00
1.815000e-01 1.282500e-01 0.000000e+00
3.630000e-01 1.282500e-01 0.000000e+00
5.445000e-01 1.282500e-01 0.000000e+00
7.260000e-01 1.282500e-01 0.000000e+00
0.000000e+00 2.565000e-01 0.000000e+00
1.815000e-01 2.565000e-01 0.000000e+00
3.630000e-01 2.565000e-01 0.000000e+00
5.445000e-01 2.565000e-01 0.000000e+00
7.260000e-01 2.565000e-01 0.000000e+00
0.000000e+00 3.847500e-01 0.000000e+00
1.815000e-01 3.847500e-01 0.000000e+00
3.630000e-01 3.847500e-01 0.000000e+00
5.445000e-01 3.847500e-01 0.000000e+00
7.260000e-01 3.847500e-01 0.000000e+00
0.000000e+00 5.130000e-01 0.000000e+00
1.815000e-01 5.130000e-01 0.000000e+00
3.630000e-01 5.130000e-01 0.000000e+00
5.445000e-01 5.130000e-01 0.000000e+00
7.260000e-01 5.130000e-01 0.000000e+00
7.260000e-01 0.000000e+00 0.000000e+00
9.075000e-01 0.000000e+00 0.000000e+00
1.089000e+00 0.000000e+00 0.000000e+00
1.270500e+00 0.000000e+00 0.000000e+00
1.452000e+00 0.000000e+00 0.000000e+00
7.260000e-01 1.282500e-01 0.000000e+00
9.075000e-01 1.282500e-01 0.000000e+00
1.089000e+00 1.282500e-01 0.000000e+00
1.270500e+00 1.282500e-01 0.000000e+00
1.452000e+00 1.282500e-01 0.000000e+00
7.260000e-01 2.565000e-01 0.000000e+00
9.075000e-01 2.565000e-01 0.000000e+00
1.089000e+00 2.565000e-01 0.000000e+00
1.270500e+00 2.565000e-01 0.000000e+00
1.452000e+00 2.565000e-01 0.000000e+00
7.260000e-01 3.847500e-01 0.000000e+00
9.075000e-01 3.847500e-01 0.000000e+00
1.089000e+00 3.847500e-01 0.000000e+00
1.270500e+00 3.847500e-01 0.000000e+00
1.452000e+00 3.847500e-01 0.000000e+00
7.260000e-01 5.130000e-01 0.000000e+00
9.075000e-01 5.130000e-01 0.000000e+00
1.089000e+00 5.130000e-01 0.000000e+00
1.270500e+00 5.130000e-01 0.000000e+00
1.452000e+00 5.130000e-01 0.000000e+00
1.452000e+00 0.000000e+00 0.000000e+00
1.633500e+00 0.000000e+00 0.000000e+00
1.815000e+00 0.000000e+00 0.000000e+00
1.996500e+00 0.000000e+00 0.000000e+00
2.178000e+00 0.000000e+00 0.000000e+00
1.452000e+00 1.282500e-01 0.000000e+00
1.633500e+00 1.282500e-01 0.000000e+00
1.815000e+00 1.282500e-01 0.000000e+00
1.996500e+00 1.282500e-01 0.000000e+00
2.178000e+00 1.282500e-01 0.000000e+00
1.452000e+00 2.565000e-01 0.000000e+00
1.633500e+00 2.565000e-01 0.000000e+00
1.815000e+00 2.565000e-01 0.000000e+00
1.996500e+00 2.565000e-01 0.000000e+00
2.178000e+00 2.565000e-01 0.000000e+00
1.452000e+00 3.847500e-01 0.000000e+00
1.633500e+00 3.847500e-01 0.000000e+00
1.815000e+00 3.847500e-01 0.000000e+00
1.996500e+00 3.847500e-01 0.000000e+00
2.178000e+00 3.847500e-01 0.000000e+00
1.452000e+00 5.130000e-01 0.000000e+00
1.633500e+00 5.130000e-01 0.000000e+00
1.815000e+00 5.130000e-01 0.000000e+00
1.996500e+00 5.130000e-01 0.000000e+00
2.178000e+00 5.130000e-01 0.000000e+00
2.178000e+00 0.000000e+00 0.000000e+00
2.359500e+00 0.000000e+00 0.000000e+00
2.541000e+00 0.000000e+00 0.000000e+00
2.722500e+00 0.000000e+00 0.000000e+00
2.904000e+00 0.000000e+00 0.000000e+00
2.178000e+00 1.282500e-01 0.000000e+00
2.359500e+00 1.282500e-01 0.000000e+00
2.541000e+00 1.282500e-01 0.000000e+00
2.722500e+00 1.282500e-01 0.000000e+00
2.904000e+00 1.282500e-01 0.000000e+00
2.178000e+00 2.565000e-01 0.000000e+00
2.359500e+00 2.565000e-01 0.000000e+00
2.541000e+00 2.565000e-01 0.000000e+00
2.722500e+00 2.565000e-01 0.000000e+00
2.904000e+00 2.565000e-01 0.000000e+00
2.178000e+00 3.847500e-01 0.000000e+00
2.359500e+00 3.847500e-01 0.000000e+00
2.541000e+00 3.847500e-01 0.000000e+00
2.722500e+00 3.847500e-01 0.000000e+00
2.904000e+00 3.847500e-01 0.000000e+00
2.178000e+00 5.130000e-01 0.000000e+00
2.359500e+00 5.130000e-01 0.000000e+00
2.541000e+00 5.130000e-01 0.000000e+00
2.722500e+00 5.130000e-01 0.000000e+00
2.904000e+00 5.130000e-01 0.000000e+00
2.904000e+00 0.000000e+00 0.000000e+00
3.085500e+00 0.000000e+00 0.000000e+00
3.267000e+00 0.000000e+00 0.000000e+00
3.448500e+00 0.000000e+00 0.000000e+00
3.630000e+00 0.000000e+00 0.000000e+00
2.904000e+00 1.282500e-01 0.000000e+00
3.085500e+00 1.282500e-01 0.000000e+00
3.267000e+00 1.282500e-01 0.000000e+00
3.448500e+00 1.282500e-01 0.000000e+00
3.630000e+00 1.282500e-01 0.000000e+00
2.904000e+00 2.565000e-01 0.000000e+00
3.085500e+00 2.565000e-01 0.000000e+00
3.267000e+00 2.565000e-01 0.000000e+00
3.448500e+00 2.565000e-01 0.000000e+00
3.630000e+00 2.565000e-01 0.000000e+00
2.904000e+00 3.847500e-01 0.000000e+00
3.085500e+00 3.847500e-01 0.000000e+00
3.267000e+00 3.847500e-01 0.000000e+00
3.448500e+00 3.847500e-01 0.000000e+00
3.630000e+00 3.847500e-01 0.000000e+00
2.904000e+00 5.130000e-01 0.000000e+00
[...]
<PointData>
<DataArray type="Float32" Name="V1" format="ascii">
0.000000e+00
0.000000e+00
0.000000e+00
0.000000e+00
0.000000e+00
1.264110e-02
1.103780e-02
9.686890e-03
8.588390e-03
7.742300e-03
2.028400e-02
1.823110e-02
1.644470e-02
1.492490e-02
1.367160e-02
2.292870e-02
2.157990e-02
2.027350e-02
1.900950e-02
1.778790e-02
2.057510e-02
2.108420e-02
2.117330e-02
2.084230e-02
2.009120e-02
0.000000e+00
0.000000e+00
0.000000e+00
0.000000e+00
0.000000e+00
7.742300e-03
6.759020e-03
6.069270e-03
5.673050e-03
5.570360e-03
1.367160e-02
1.219190e-02
1.110680e-02
1.041630e-02
1.012050e-02
1.778790e-02
1.629850e-02
1.511240e-02
1.422970e-02
1.365030e-02
2.009120e-02
1.907900e-02
1.808630e-02
1.711330e-02
1.615990e-02
0.000000e+00
0.000000e+00
0.000000e+00
0.000000e+00
0.000000e+00
5.570360e-03
5.612860e-03
5.604940e-03
5.546600e-03
5.437850e-03
1.012050e-02
1.009640e-02
9.948260e-03
9.675900e-03
9.279360e-03
1.365030e-02
1.345080e-02
1.303000e-02
1.238790e-02
1.152450e-02
1.615990e-02
1.567580e-02
1.485000e-02
1.368250e-02
1.217340e-02
0.000000e+00
0.000000e+00
0.000000e+00
0.000000e+00
0.000000e+00
5.437850e-03
3.873790e-03
3.700140e-03
4.916900e-03
7.524070e-03
9.279360e-03
6.504050e-03
5.877160e-03
7.398690e-03
1.106860e-02
1.152450e-02
7.890780e-03
6.531060e-03
7.445370e-03
1.063370e-02
1.217340e-02
8.033980e-03
5.661850e-03
5.056960e-03
6.219290e-03
0.000000e+00
0.000000e+00
0.000000e+00
0.000000e+00
0.000000e+00
7.524070e-03
2.618440e-03
-4.765510e-03
-1.462780e-02
-2.696840e-02
1.106860e-02
1.075520e-03
-1.164720e-02
-2.709940e-02
-4.528130e-02
1.063370e-02
-4.628740e-03
-2.064500e-02
-3.741490e-02
-5.493870e-02
6.219290e-03
-1.449440e-02
-3.175890e-02
-4.557430e-02
-5.594050e-02
0.000000e+00
0.000000e+00
0.000000e+00
0.000000e+00
0.000000e+00
-2.696840e-02
-2.549860e-02
-2.396280e-02
-2.236100e-02
-2.069330e-02
-4.528130e-02
-4.189940e-02
-3.856600e-02
-3.528100e-02
-3.204460e-02
-5.493870e-02
-4.920240e-02
-4.380960e-02
-3.876010e-02
-3.405390e-02
-5.594050e-02
-4.740770e-02
-3.969360e-02
-3.279810e-02
-2.672140e-02
0.000000e+00
0.000000e+00
0.000000e+00
0.000000e+00
0.000000e+00
-2.069330e-02
-1.805530e-02
-1.481420e-02
-1.097020e-02
-6.523070e-03
-3.204460e-02
-2.794130e-02
-2.289010e-02
-1.689080e-02
-9.943450e-03
-3.405390e-02
-2.965820e-02
-2.422750e-02
-1.776180e-02
-1.026110e-02
-2.672140e-02
-2.320600e-02
-1.882660e-02
-1.358330e-02
-7.476130e-03
0.000000e+00
0.000000e+00
0.000000e+00
0.000000e+00
0.000000e+00
-6.523070e-03
-2.602290e-03
4.236060e-04
2.554630e-03
3.790770e-03
-9.943450e-03
-3.684170e-03
1.183040e-03
4.658170e-03
6.741210e-03
-1.026110e-02
-3.245620e-03
2.278300e-03
6.310620e-03
8.851340e-03
-7.476130e-03
-1.286650e-03
3.709390e-03
7.511990e-03
1.012110e-02
0.000000e+00
0.000000e+00
0.000000e+00
0.000000e+00
0.000000e+00
3.790770e-03
5.223540e-03
6.380800e-03
7.262520e-03
7.868720e-03
6.741210e-03
9.099220e-03
1.101180e-02
1.247890e-02
1.350060e-02
8.851340e-03
1.162700e-02
1.389300e-02
1.564930e-02
1.689580e-02
1.012110e-02
1.280700e-02
1.502440e-02
1.677350e-02
1.805410e-02
0.000000e+00
0.000000e+00
0.000000e+00
0.000000e+00
0.000000e+00
7.868720e-03
8.457690e-03
9.066570e-03
9.695360e-03
1.034410e-02
1.350060e-02
1.459310e-02
1.566320e-02
1.671070e-02
1.773580e-02
1.689580e-02
1.840630e-02
1.978980e-02
2.104610e-02
2.217530e-02
1.805410e-02
1.989730e-02
2.144640e-02
2.270140e-02
2.366240e-02
2.057510e-02
2.108420e-02
2.117330e-02
2.084230e-02
2.009120e-02
2.078850e-02
2.097360e-02
2.100760e-02
2.089060e-02
2.062260e-02
2.103660e-02
2.096110e-02
2.091330e-02
2.089340e-02
2.090130e-02
2.131930e-02
2.104660e-02
2.089050e-02
2.085070e-02
2.092740e-02
2.163650e-02
2.123030e-02
2.093900e-02
2.076240e-02
2.070070e-02
2.009120e-02
1.907900e-02
1.808630e-02
1.711330e-02
1.615990e-02
2.062260e-02
2.001280e-02
1.931930e-02
1.854200e-02
1.768100e-02
2.090130e-02
2.056580e-02
2.010370e-02
1.951500e-02
1.879980e-02
2.092740e-02
2.073800e-02
2.043960e-02
2.003240e-02
1.951620e-02
2.070070e-02
2.052930e-02
2.032710e-02
2.009400e-02
1.983020e-02
1.615990e-02
1.567580e-02
1.485000e-02
1.368250e-02
1.217340e-02
1.768100e-02
1.665810e-02
1.549080e-02
1.417920e-02
1.272320e-02
1.879980e-02
1.724260e-02
1.585140e-02
1.462630e-02
1.356720e-02
1.951620e-02
1.742940e-02
1.593200e-02
1.502390e-02
1.470510e-02
1.983020e-02
1.721850e-02
1.573240e-02
1.537200e-02
1.613720e-02
1.217340e-02
8.033980e-03
5.661850e-03
5.056960e-03
6.219290e-03
1.272320e-02
8.301100e-03
5.015000e-03
2.864930e-03
1.850890e-03
1.356720e-02
8.735750e-03
4.715100e-03
1.505200e-03
-8.939470e-04
1.470510e-02
9.337950e-03
4.762160e-03
9.777780e-04
-2.015210e-03
1.613720e-02
1.010770e-02
5.156180e-03
1.282660e-03
-1.512900e-03
6.219290e-03
-1.449440e-02
-3.175890e-02
-4.557430e-02
-5.594050e-02
1.850890e-03
-1.904490e-02
-3.565900e-02
-4.799160e-02
-5.604260e-02
-8.939470e-04
-1.986370e-02
-3.440910e-02
-4.453000e-02
-5.022660e-02
-2.015210e-03
-1.695090e-02
-2.800900e-02
-3.518950e-02
-3.849250e-02
-1.512900e-03
-1.030640e-02
-1.645880e-02
-1.997010e-02
-2.084030e-02
-5.594050e-02
-4.740770e-02
-3.969360e-02
-3.279810e-02
-2.672140e-02
-5.604260e-02
-4.766580e-02
-3.917210e-02
-3.056140e-02
-2.183390e-02
-5.022660e-02
-4.287220e-02
-3.461840e-02
-2.546520e-02
-1.541250e-02
-3.849250e-02
-3.302700e-02
-2.603260e-02
-1.750930e-02
-7.457230e-03
-2.084030e-02
-1.813000e-02
-1.341450e-02
-6.693870e-03
2.031980e-03
-2.672140e-02
-2.320600e-02
-1.882660e-02
-1.358330e-02
-7.476130e-03
-2.183390e-02
-1.970980e-02
-1.638300e-02
-1.185340e-02
-6.120950e-03
-1.541250e-02
-1.426380e-02
-1.192610e-02
-8.399380e-03
-3.683600e-03
-7.457230e-03
-6.867990e-03
-5.456060e-03
-3.221410e-03
-1.640710e-04
2.031980e-03
2.477730e-03
3.027250e-03
3.680550e-03
4.437630e-03
-7.476130e-03
-1.286650e-03
3.709390e-03
7.511990e-03
1.012110e-02
-6.120950e-03
5.303280e-04
5.685910e-03
9.345790e-03
1.151000e-02
-3.683600e-03
2.960430e-03
7.945990e-03
1.127310e-02
1.294160e-02
-1.640710e-04
6.003670e-03
1.048960e-02
1.329380e-02
1.441610e-02
4.437630e-03
9.660040e-03
1.331680e-02
1.540800e-02
1.593350e-02
1.012110e-02
1.280700e-02
1.502440e-02
1.677350e-02
1.805410e-02
1.151000e-02
1.391840e-02
1.591760e-02
1.750760e-02
1.868830e-02
1.294160e-02
1.502830e-02
1.677530e-02
1.818260e-02
1.925010e-02
1.441610e-02
1.613660e-02
1.759740e-02
1.879840e-02
1.973970e-02
1.593350e-02
1.724340e-02
1.838390e-02
1.935510e-02
2.015680e-02
1.805410e-02
1.989730e-02
2.144640e-02
2.270140e-02
2.366240e-02
1.868830e-02
2.060050e-02
2.218590e-02
2.344450e-02
2.437640e-02
1.925010e-02
2.116000e-02
2.271730e-02
2.392200e-02
2.477420e-02
1.973970e-02
2.157590e-02
2.304060e-02
2.413390e-02
2.485580e-02
2.015680e-02
2.184810e-02
2.315590e-02
2.408020e-02
2.462100e-02
2.163650e-02
2.123030e-02
2.093900e-02
2.076240e-02
2.070070e-02
2.197900e-02
2.158550e-02
2.128330e-02
2.107250e-02
2.095300e-02
2.233590e-02
2.197810e-02
2.168760e-02
2.146420e-02
2.130800e-02
2.270730e-02
2.240830e-02
2.215160e-02
2.193740e-02
2.176550e-02
2.309330e-02
2.287600e-02
2.267560e-02
2.249220e-02
2.232570e-02
2.070070e-02
2.052930e-02
2.032710e-02
2.009400e-02
1.983020e-02
2.095300e-02
2.065450e-02
2.041640e-02
2.023880e-02
2.012180e-02
2.130800e-02
2.089840e-02
2.062640e-02
2.049210e-02
2.049550e-02
2.176550e-02
2.126100e-02
2.095720e-02
2.085390e-02
2.095130e-02
2.232570e-02
2.174240e-02
2.140860e-02
2.132420e-02
2.148920e-02
1.983020e-02
1.721850e-02
1.573240e-02
1.537200e-02
1.613720e-02
2.012180e-02
1.716510e-02
1.574580e-02
1.586380e-02
1.751910e-02
2.049550e-02
1.735430e-02
1.603310e-02
1.653180e-02
1.885040e-02
2.095130e-02
1.778610e-02
1.659430e-02
1.737590e-02
2.013090e-02
2.148920e-02
1.846040e-02
1.742940e-02
1.839620e-02
2.136080e-02
1.613720e-02
1.010770e-02
5.156180e-03
1.282660e-03
-1.512900e-03
1.751910e-02
1.121790e-02
6.482660e-03
3.313460e-03
1.710300e-03
1.885040e-02
1.286480e-02
8.589180e-03
6.023520e-03
5.167810e-03
2.013090e-02
1.504850e-02
1.147580e-02
9.412820e-03
8.859630e-03
2.136080e-02
1.776890e-02
1.514240e-02
1.348140e-02
1.278570e-02
-1.512900e-03
-1.030640e-02
-1.645880e-02
-1.997010e-02
-2.084030e-02
1.710300e-03
7.923540e-04
3.957150e-04
5.203850e-04
1.166360e-03
5.167810e-03
1.056570e-02
1.480420e-02
1.788320e-02
1.980280e-02
8.859630e-03
1.901370e-02
2.676670e-02
3.211840e-02
3.506900e-02
1.278570e-02
2.613630e-02
3.628310e-02
4.322590e-02
4.696500e-02
-2.084030e-02
-1.813000e-02
-1.341450e-02
-6.693870e-03
2.031980e-03
1.166360e-03
-1.691800e-03
-1.189740e-03
2.672550e-03
9.895060e-03
1.980280e-02
1.347060e-02
1.115360e-02
1.285180e-02
1.856520e-02
3.506900e-02
2.735720e-02
2.361550e-02
2.384390e-02
2.804250e-02
4.696500e-02
3.996790e-02
3.619590e-02
3.564890e-02
3.832690e-02
2.031980e-03
2.477730e-03
3.027250e-03
3.680550e-03
4.437630e-03
9.895060e-03
1.003390e-02
9.947860e-03
9.636910e-03
9.101070e-03
1.856520e-02
1.783480e-02
1.675230e-02
1.531790e-02
1.353140e-02
2.804250e-02
2.588040e-02
2.344070e-02
2.072350e-02
1.772870e-02
3.832690e-02
3.417060e-02
3.001290e-02
2.585360e-02
2.169290e-02
4.437630e-03
9.660040e-03
1.331680e-02
1.540800e-02
1.593350e-02
9.101070e-03
1.316780e-02
1.591390e-02
1.733950e-02
1.744440e-02
1.353140e-02
1.651610e-02
1.841520e-02
1.922860e-02
1.895650e-02
1.772870e-02
1.970500e-02
2.082060e-02
2.107550e-02
2.046960e-02
2.169290e-02
2.273450e-02
2.313020e-02
2.288000e-02
2.198390e-02
1.593350e-02
1.724340e-02
1.838390e-02
1.935510e-02
2.015680e-02
1.744440e-02
1.845430e-02
1.935800e-02
2.015560e-02
2.084700e-02
1.895650e-02
1.966750e-02
2.033160e-02
2.094880e-02
2.151930e-02
2.046960e-02
2.088300e-02
2.130470e-02
2.173490e-02
2.217350e-02
2.198390e-02
2.210080e-02
2.227740e-02
2.251360e-02
2.280960e-02
2.015680e-02
2.184810e-02
2.315590e-02
2.408020e-02
2.462100e-02
2.084700e-02
2.225360e-02
2.334950e-02
2.413480e-02
2.460950e-02
2.151930e-02
2.265270e-02
2.354630e-02
2.419990e-02
2.461360e-02
2.217350e-02
2.304570e-02
2.374640e-02
2.427570e-02
2.463350e-02
2.280960e-02
2.343230e-02
2.394980e-02
2.436200e-02
2.466900e-02
2.309330e-02
2.287600e-02
2.267560e-02
2.249220e-02
2.232570e-02
2.348320e-02
2.329090e-02
2.312440e-02
2.298370e-02
2.286880e-02
2.386930e-02
2.369720e-02
2.356020e-02
2.345820e-02
2.339120e-02
2.425160e-02
2.409490e-02
2.398280e-02
2.391550e-02
2.389280e-02
2.463000e-02
2.448380e-02
2.439230e-02
2.435560e-02
2.437370e-02
2.232570e-02
2.174240e-02
2.140860e-02
2.132420e-02
2.148920e-02
2.286880e-02
2.228800e-02
2.196220e-02
2.189150e-02
2.207580e-02
2.339120e-02
2.283710e-02
2.253460e-02
2.248380e-02
2.268470e-02
2.389280e-02
2.338970e-02
2.312580e-02
2.310110e-02
2.331570e-02
2.437370e-02
2.394580e-02
2.373570e-02
2.374340e-02
2.396890e-02
2.148920e-02
1.846040e-02
1.742940e-02
1.839620e-02
2.136080e-02
2.207580e-02
1.970440e-02
1.890540e-02
1.967910e-02
2.202530e-02
2.268470e-02
2.097370e-02
2.042480e-02
2.103810e-02
2.281340e-02
2.331570e-02
2.226830e-02
2.198750e-02
2.247310e-02
2.372510e-02
2.396890e-02
2.358830e-02
2.359340e-02
2.398410e-02
2.476040e-02
2.136080e-02
1.776890e-02
1.514240e-02
1.348140e-02
1.278570e-02
2.202530e-02
2.062430e-02
1.945750e-02
1.852490e-02
1.782640e-02
2.281340e-02
2.296580e-02
2.298060e-02
2.285790e-02
2.259760e-02
2.372510e-02
2.479330e-02
2.571180e-02
2.648050e-02
2.709950e-02
2.476040e-02
2.610680e-02
2.765090e-02
2.939260e-02
3.133190e-02
1.278570e-02
2.613630e-02
3.628310e-02
4.322590e-02
4.696500e-02
1.782640e-02
3.090360e-02
4.137620e-02
4.924410e-02
5.450730e-02
2.259760e-02
3.473220e-02
4.483840e-02
5.291630e-02
5.896570e-02
2.709950e-02
3.762210e-02
4.666970e-02
5.424240e-02
6.034000e-02
3.133190e-02
3.957330e-02
4.687010e-02
5.322250e-02
5.863040e-02
4.696500e-02
3.996790e-02
3.619590e-02
3.564890e-02
3.832690e-02
5.450730e-02
5.011340e-02
4.706040e-02
4.534830e-02
4.497720e-02
5.896570e-02
5.650090e-02
5.405190e-02
5.161870e-02
4.920140e-02
6.034000e-02
5.913030e-02
5.717040e-02
5.446020e-02
5.099970e-02
5.863040e-02
5.800180e-02
5.641580e-02
5.387260e-02
5.037200e-02
3.832690e-02
3.417060e-02
3.001290e-02
2.585360e-02
2.169290e-02
4.497720e-02
3.905060e-02
3.372440e-02
2.899850e-02
2.487300e-02
4.920140e-02
4.239030e-02
3.652270e-02
3.159860e-02
2.761800e-02
5.099970e-02
4.418980e-02
3.840780e-02
3.365380e-02
2.992780e-02
5.037200e-02
4.444900e-02
3.937970e-02
3.516420e-02
3.180240e-02
2.169290e-02
2.273450e-02
2.313020e-02
2.288000e-02
2.198390e-02
2.487300e-02
2.512130e-02
2.494840e-02
2.435450e-02
2.333940e-02
2.761800e-02
2.718030e-02
2.652320e-02
2.564680e-02
2.455110e-02
2.992780e-02
2.891150e-02
2.785460e-02
2.675700e-02
2.561880e-02
3.180240e-02
3.031500e-02
2.894260e-02
2.768510e-02
2.654270e-02
2.198390e-02
2.210080e-02
2.227740e-02
2.251360e-02
2.280960e-02
2.333940e-02
2.325730e-02
2.323790e-02
2.328120e-02
2.338740e-02
2.455110e-02
2.430660e-02
2.412300e-02
2.400020e-02
2.393820e-02
2.561880e-02
2.524880e-02
2.493270e-02
2.467050e-02
2.446210e-02
2.654270e-02
2.608390e-02
2.566710e-02
2.529220e-02
2.495920e-02
2.280960e-02
2.343230e-02
2.394980e-02
2.436200e-02
2.466900e-02
2.338740e-02
2.386570e-02
2.425290e-02
2.454880e-02
2.475340e-02
2.393820e-02
2.428350e-02
2.454980e-02
2.473680e-02
2.484470e-02
2.446210e-02
2.468570e-02
2.484040e-02
2.492620e-02
2.494320e-02
2.495920e-02
2.507230e-02
2.512490e-02
2.511700e-02
2.504860e-02
2.463000e-02
2.448380e-02
2.439230e-02
2.435560e-02
2.437370e-02
2.499690e-02
2.487870e-02
2.481410e-02
2.480310e-02
2.484570e-02
2.534870e-02
2.526200e-02
2.522550e-02
2.523930e-02
2.530350e-02
2.568540e-02
2.563360e-02
2.562670e-02
2.566440e-02
2.574700e-02
2.600690e-02
2.599370e-02
2.601750e-02
2.607840e-02
2.617630e-02
2.437370e-02
2.394580e-02
2.373570e-02
2.374340e-02
2.396890e-02
2.484570e-02
2.451080e-02
2.436870e-02
2.441940e-02
2.466290e-02
2.530350e-02
2.505740e-02
2.497940e-02
2.506970e-02
2.532810e-02
2.574700e-02
2.558560e-02
2.556800e-02
2.569440e-02
2.596460e-02
2.617630e-02
2.609540e-02
2.613450e-02
2.629350e-02
2.657240e-02
2.396890e-02
2.358830e-02
2.359340e-02
2.398410e-02
2.476040e-02
2.466290e-02
2.457470e-02
2.478910e-02
2.530600e-02
2.612550e-02
2.532810e-02
2.544380e-02
2.581070e-02
2.642880e-02
2.729800e-02
2.596460e-02
2.619570e-02
2.665830e-02
2.735240e-02
2.827810e-02
2.657240e-02
2.683020e-02
2.733170e-02
2.807690e-02
2.906560e-02
2.476040e-02
2.610680e-02
2.765090e-02
2.939260e-02
3.133190e-02
2.612550e-02
2.748490e-02
2.919250e-02
3.124820e-02
3.365190e-02
2.729800e-02
2.872840e-02
3.053370e-02
3.271410e-02
3.526960e-02
2.827810e-02
2.983700e-02
3.167450e-02
3.379050e-02
3.618500e-02
2.906560e-02
3.081100e-02
3.261490e-02
3.447720e-02
3.639800e-02
3.133190e-02
3.957330e-02
4.687010e-02
5.322250e-02
5.863040e-02
3.365190e-02
4.082460e-02
4.707680e-02
5.240830e-02
5.681930e-02
3.526960e-02
4.132160e-02
4.653240e-02
5.090210e-02
5.443050e-02
3.618500e-02
4.106420e-02
4.523710e-02
4.870360e-02
5.146390e-02
3.639800e-02
4.005240e-02
4.319070e-02
4.581310e-02
4.791950e-02
5.863040e-02
5.800180e-02
5.641580e-02
5.387260e-02
5.037200e-02
5.681930e-02
5.610480e-02
5.457100e-02
5.221790e-02
4.904550e-02
5.443050e-02
5.374520e-02
5.237440e-02
5.031800e-02
4.757600e-02
5.146390e-02
5.092300e-02
4.982590e-02
4.817280e-02
4.596370e-02
4.791950e-02
4.763800e-02
4.692570e-02
4.578250e-02
4.420840e-02
5.037200e-02
4.444900e-02
3.937970e-02
3.516420e-02
3.180240e-02
4.904550e-02
4.390940e-02
3.949550e-02
3.580390e-02
3.283450e-02
4.757600e-02
4.324900e-02
3.948800e-02
3.629310e-02
3.366440e-02
4.596370e-02
4.246770e-02
3.935720e-02
3.663200e-02
3.429230e-02
4.420840e-02
4.156570e-02
3.910310e-02
3.682050e-02
3.471800e-02
3.180240e-02
3.031500e-02
2.894260e-02
2.768510e-02
2.654270e-02
3.283450e-02
3.126850e-02
2.983860e-02
2.854490e-02
2.738720e-02
3.366440e-02
3.203380e-02
3.056280e-02
2.925130e-02
2.809940e-02
3.429230e-02
3.261110e-02
3.111510e-02
2.980450e-02
2.867920e-02
3.471800e-02
3.300010e-02
3.149560e-02
3.020450e-02
2.912680e-02
2.654270e-02
2.608390e-02
2.566710e-02
2.529220e-02
2.495920e-02
2.738720e-02
2.682980e-02
2.632320e-02
2.586740e-02
2.546230e-02
2.809940e-02
2.746500e-02
2.688930e-02
2.637220e-02
2.591370e-02
2.867920e-02
2.798950e-02
2.736530e-02
2.680660e-02
2.631330e-02
2.912680e-02
2.840330e-02
2.775130e-02
2.717060e-02
2.666130e-02
2.495920e-02
2.507230e-02
2.512490e-02
2.511700e-02
2.504860e-02
2.546230e-02
2.544450e-02
2.539220e-02
2.530540e-02
2.518420e-02
2.591370e-02
2.578250e-02
2.563970e-02
2.548520e-02
2.531920e-02
2.631330e-02
2.608630e-02
2.586730e-02
2.565640e-02
2.545340e-02
2.666130e-02
2.635600e-02
2.607520e-02
2.581880e-02
2.558700e-02
2.600690e-02
2.599370e-02
2.601750e-02
2.607840e-02
2.617630e-02
2.630990e-02
2.633220e-02
2.638560e-02
2.647000e-02
2.658530e-02
2.659390e-02
2.664940e-02
2.673010e-02
2.683610e-02
2.696730e-02
2.685910e-02
2.694520e-02
2.705110e-02
2.717690e-02
2.732230e-02
2.710540e-02
2.721970e-02
2.734860e-02
2.749220e-02
2.765040e-02
2.617630e-02
2.609540e-02
2.613450e-02
2.629350e-02
2.657240e-02
2.658530e-02
2.655440e-02
2.663320e-02
2.682190e-02
2.712020e-02
2.696730e-02
2.697780e-02
2.708910e-02
2.730110e-02
2.761380e-02
2.732230e-02
2.736570e-02
2.750200e-02
2.773120e-02
2.805320e-02
2.765040e-02
2.771810e-02
2.787210e-02
2.811210e-02
2.843840e-02
2.657240e-02
2.683020e-02
2.733170e-02
2.807690e-02
2.906560e-02
2.712020e-02
2.744240e-02
2.797290e-02
2.871170e-02
2.965870e-02
2.761380e-02
2.799260e-02
2.854230e-02
2.926310e-02
3.015500e-02
2.805320e-02
2.848060e-02
2.903990e-02
2.973120e-02
3.055450e-02
2.843840e-02
2.890650e-02
2.946570e-02
3.011590e-02
3.085720e-02
2.906560e-02
3.081100e-02
3.261490e-02
3.447720e-02
3.639800e-02
2.965870e-02
3.132660e-02
3.300990e-02
3.470850e-02
3.642240e-02
3.015500e-02
3.169810e-02
3.323430e-02
3.476350e-02
3.628560e-02
3.055450e-02
3.192560e-02
3.328810e-02
3.464210e-02
3.598760e-02
3.085720e-02
3.200880e-02
3.317120e-02
3.434440e-02
3.552830e-02
3.639800e-02
4.005240e-02
4.319070e-02
4.581310e-02
4.791950e-02
3.642240e-02
3.932400e-02
4.179840e-02
4.384560e-02
4.546550e-02
3.628560e-02
3.859090e-02
4.054130e-02
4.213680e-02
4.337730e-02
3.598760e-02
3.785300e-02
3.941940e-02
4.068660e-02
4.165480e-02
3.552830e-02
3.711030e-02
3.843260e-02
3.949520e-02
4.029810e-02
4.791950e-02
4.763800e-02
4.692570e-02
4.578250e-02
4.420840e-02
4.546550e-02
4.531900e-02
4.480760e-02
4.393120e-02
4.268980e-02
4.337730e-02
4.333550e-02
4.298210e-02
4.231700e-02
4.134030e-02
4.165480e-02
4.168740e-02
4.144910e-02
4.093990e-02
4.015980e-02
4.029810e-02
4.037470e-02
4.020870e-02
3.979990e-02
3.914840e-02
4.420840e-02
4.156570e-02
3.910310e-02
3.682050e-02
3.471800e-02
4.268980e-02
4.046780e-02
3.838700e-02
3.644750e-02
3.464940e-02
4.134030e-02
3.948760e-02
3.773940e-02
3.609570e-02
3.455640e-02
4.015980e-02
3.862520e-02
3.716030e-02
3.576500e-02
3.443930e-02
3.914840e-02
3.788060e-02
3.664960e-02
3.545530e-02
3.429780e-02
3.471800e-02
3.300010e-02
3.149560e-02
3.020450e-02
2.912680e-02
3.464940e-02
3.310260e-02
3.172860e-02
3.052720e-02
2.949850e-02
3.455640e-02
3.315780e-02
3.189900e-02
3.078020e-02
2.980130e-02
3.443930e-02
3.316550e-02
3.200690e-02
3.096340e-02
3.003510e-02
3.429780e-02
3.312580e-02
3.205220e-02
3.107690e-02
3.019990e-02
2.912680e-02
2.840330e-02
2.775130e-02
2.717060e-02
2.666130e-02
2.949850e-02
2.876230e-02
2.809700e-02
2.750270e-02
2.697930e-02
2.980130e-02
2.905950e-02
2.838800e-02
2.778680e-02
2.725600e-02
3.003510e-02
2.929500e-02
2.862430e-02
2.802300e-02
2.749120e-02
3.019990e-02
2.946870e-02
2.880580e-02
2.821130e-02
2.768510e-02
2.666130e-02
2.635600e-02
2.607520e-02
2.581880e-02
2.558700e-02
2.697930e-02
2.662000e-02
2.629390e-02
2.600100e-02
2.574130e-02
2.725600e-02
2.685350e-02
2.649100e-02
2.616860e-02
2.588610e-02
2.749120e-02
2.705630e-02
2.666630e-02
2.632140e-02
2.602160e-02
2.768510e-02
2.722840e-02
2.681990e-02
2.645970e-02
2.614770e-02
2.710540e-02
2.721970e-02
2.734860e-02
2.749220e-02
2.765040e-02
2.733260e-02
2.746390e-02
2.760830e-02
2.776590e-02
2.793670e-02
2.754220e-02
2.768790e-02
2.784520e-02
2.801400e-02
2.819440e-02
2.773410e-02
2.789180e-02
2.805930e-02
2.823640e-02
2.842340e-02
2.790840e-02
2.807560e-02