<?xml version="1.0"?>
<VTKFile type="UnstructuredGrid" version="0.1" byte_order="LittleEndian" compressor="vtkZLibDataCompressor">
<UnstructuredGrid>
<Piece NumberOfPoints="2500" NumberOfCells="1600">
<Points>
<DataArray type="Float32" NumberOfComponents="3" format="ascii">
-3.630000e+00 0.000000e+00 0.000000e+00
-3.448500e+00 0.000000e+00 0.000000e+00
-3.267000e+00 0.000000e+00 0.000000e+00
-3.085500e+00 0.000000e+00 0.000000e+00
-2.904000e+00 0.000000e+00 0.000000e+00
-3.630000e+00 1.282500e-01 0.000000e+00
-3.448500e+00 1.282500e-01 0.000000e+00
-3.267000e+00 1.282500e-01 0.000000e+00
-3.085500e+00 1.282500e-01 0.000000e+00
-2.904000e+00 1.282500e-01 0.000000e+00
-3.630000e+00 2.565000e-01 0.000000e+00
-3.448500e+00 2.565000e-01 0.000000e+00
-3.267000e+00 2.565000e-01 0.000000e+00
-3.085500e+00 2.565000e-01 0.000000e+00
-2.904000e+00 2.565000e-01 0.000000e+00
-3.630000e+00 3.847500e-01 0.000000e+00
-3.448500e+00 3.847500e-01 0.000000e+00
-3.267000e+00 3.847500e-01 0.000000e+00
-3.085500e+00 3.847500e-01 0.000000e+00
-2.904000e+00 3.847500e-01 0.000000e+00
-3.630000e+00 5.130000e-01 0.000000e+00
-3.448500e+00 5.130000e-01 0.000000e+00
-3.267000e+00 5.130000e-01 0.000000e+00
-3.085500e+00 5.130000e-01 0.000000e+00
-2.904000e+00 5.130000e-01 0.000000e+00
-2.904000e+00 0.000000e+00 0.000000e+00
-2.722500e+00 0.000000e+00 0.000000e+00
-2.541000e+00 0.000000e+00 0.000000e+00
-2.359500e+00 0.000000e+00 0.000000e+00
-2.178000e+00 0.000000e+00 0.000000e+00
-2.904000e+00 1.282500e-01 0.000000e+00
-2.722500e+00 1.282500e-01 0.000000e+00
-2.541000e+00 1.282500e-01 0.000000e+00
-2.359500e+00 1.282500e-01 0.000000e+00
-2.178000e+00 1.282500e-01 0.000000e+00
-2.904000e+00 2.565000e-01 0.000000e+00
-2.722500e+00 2.565000e-01 0.000000e+00
-2.541000e+00 2.565000e-01 0.000000e+00
-2.359500e+00 2.565000e-01 0.000000e+00
-2.178000e+00 2.565000e-01 0.000000e+00
-2.904000e+00 3.847500e-01 0.000000e+00
-2.722500e+00 3.847500e-01 0.000000e+00
-2.541000e+00 3.847500e-01 0.000000e+00
-2.359500e+00 3.847500e-01 0.000000e+00
-2.178000e+00 3.847500e-01 0.000000e+00
-2.904000e+00 5.130000e-01 0.000000e+00
-2.722500e+00 5.130000e-01 0.000000e+00
-2.541000e+00 5.130000e-01 0.000000e+00
-2.359500e+00 5.130000e-01 0.000000e+00
-2.178000e+00 5.130000e-01 0.000000e+00
-2.178000e+00 0.000000e+00 0.000000e+00
-1.996500e+00 0.000000e+00 0.000000e+00
-1.815000e+00 0.000000e+00 0.000000e+00
-1.633500e+00 0.000000e+00 0.000000e+00
-1.452000e+00 0.000000e+00 0.000000e+00
-2.178000e+00 1.282500e-01 0.000000e+00
-1.996500e+00 1.282500e-01 0.000000e+00
-1.815000e+00 1.282500e-01 0.000000e+00
-1.633500e+00 1.282500e-01 0.000000e+00
-1.452000e+00 1.282500e-01 0.000000e+00
-2.178000e+00 2.565000e-01 0.000000e+00
-1.996500e+00 2.565000e-01 0.000000e+00
-1.815000e+00 2.565000e-01 0.000000e+00
-1.633500e+00 2.565000e-01 0.000000e+00
-1.452000e+00 2.565000e-01 0.000000e+00
-2.178000e+00 3.847500e-01 0.000000e+00
-1.996500e+00 3.847500e-01 0.000000e+00
-1.815000e+00 3.847500e-01 0.000000e+00
-1.633500e+00 3.847500e-01 0.000000e+00
-1.452000e+00 3.847500e-01 0.000000e+00
-2.178000e+00 5.130000e-01 0.000000e+00
-1.996500e+00 5.130000e-01 0.000000e+00
-1.815000e+00 5.130000e-01 0.000000e+00
-1.633500e+00 5.130000e-01 0.000000e+00
-1.452000e+00 5.130000e-01 0.000000e+00
-1.452000e+00 0.000000e+00 0.000000e+00
-1.270500e+00 0.000000e+00 0.000000e+00
-1.089000e+00 0.000000e+00 0.000000e+00
-9.075000e-01 0.000000e+00 0.000000e+00
-7.260000e-01 0.000000e+00 0.000000e+00
-1.452000e+00 1.282500e-01 0.000000e+00
-1.270500e+00 1.282500e-01 0.000000e+00
-1.089000e+00 1.282500e-01 0.000000e+00
-9.075000e-01 1.282500e-01 0.000000e+00
-7.260000e-01 1.282500e-01 0.000000e+00
-1.452000e+00 2.565000e-01 0.000000e+00
-1.270500e+00 2.565000e-01 0.000000e+00
-1.089000e+00 2.565000e-01 0.000000e+00
-9.075000e-01 2.565000e-01 0.000000e+00
-7.260000e-01 2.565000e-01 0.000000e+00
-1.452000e+00 3.847500e-01 0.000000e+00
-1.270500e+00 3.847500e-01 0.000000e+00
-1.089000e+00 3.847500e-01 0.000000e+00
-9.075000e-01 3.847500e-01 0.000000e+00
-7.260000e-01 3.847500e-01 0.000000e+00
-1.452000e+00 5.130000e-01 0.000000e+00
-1.270500e+00 5.130000e-01 0.000000e+00
-1.089000e+00 5.130000e-01 0.000000e+00
-9.075000e-01 5.130000e-01 0.000000e+00
-7.260000e-01 5.130000e-01 0.000000e+00
-7.260000e-01 0.000000e+00 0.000000e+00
-5.445000e-01 0.000000e+00 0.000000e+00
-3.630000e-01 0.000000e+00 0.000000e+00
-1.815000e-01 0.000000e+00 0.000000e+00
0.000000e+00 0.000000e+00 0.000000e+00
-7.260000e-01 1.282500e-01 0.000000e+00
-5.445000e-01 1.282500e-01 0.000000e+00
-3.630000e-01 1.282500e-01 0.000000e+00
-1.815000e-01 1.282500e-01 0.000000e+00
0.000000e+00 1.282500e-01 0.000000e+00
-7.260000e-01 2.565000e-01 0.000000e+00
-5.445000e-01 2.565000e-01 0.000000e+00
-3.630000e-01 2.565000e-01 0.000000e+00
-1.815000e-01 2.565000e-01 0.000000e+00
0.000000e+00 2.565000e-01 0.000000e+00
-7.260000e-01 3.847500e-01 0.000000e+00
-5.445000e-01 3.847500e-01 0.000000e+00
-3.630000e-01 3.847500e-01 0.000000e+00
-1.815000e-01 3.847500e-01 0.000000e+00
0.000000e+00 3.847500e-01 0.000000e+00
-7.260000e-01 5.130000e-01 0.000000e+00
-5.445000e-01 5.130000e-01 0.000000e+00
-3.630000e-01 5.130000e-01 0.000000e+00
-1.815000e-01 5.130000e-01 0.000000e+00
0.000000e+00 5.130000e-01 0.000000e+00
0.000000e+00 0.000000e+00 0.000000e+00
1.815000e-01 0.000000e+00 0.000000e+00
3.630000e-01 0.000000e+00 0.000000e+00
5.445000e-01 0.000000e+00 0.000000e+00
7.260000e-01 0.000000e+00 0.000000e+00
0.000000e+00 1.282500e-01 0.000000e+00
1.815000e-01 1.282500e-01 0.000000e+00
3.630000e-01 1.282500e-01 0.000000e+00
5.445000e-01 1.282500e-01 0.000000e+00
7.260000e-01 1.282500e-01 0.000000e+00
0.000000e+00 2.565000e-01 0.000000e+00
1.815000e-01 2.565000e-01 0.000000e+00
3.630000e-01 2.565000e-01 0.000000e+00
5.445000e-01 2.565000e-01 0.000000e+00
7.260000e-01 2.565000e-01 0.000000e+00
0.000000e+00 3.847500e-01 0.000000e+00
1.815000e-01 3.847500e-01 0.000000e+00
3.630000e-01 3.847500e-01 0.000000e+00
5.445000e-01 3.847500e-01 0.000000e+00
7.260000e-01 3.847500e-01 0.000000e+00
0.000000e+00 5.130000e-01 0.000000e+00
1.815000e-01 5.130000e-01 0.000000e+00
3.630000e-01 5.130000e-01 0.000000e+00
5.445000e-01 5.130000e-01 0.000000e+00
7.260000e-01 5.130000e-01 0.000000e+00
7.260000e-01 0.000000e+00 0.000000e+00
9.075000e-01 0.000000e+00 0.000000e+00
1.089000e+00 0.000000e+00 0.000000e+00
1.270500e+00 0.000000e+00 0.000000e+00
1.452000e+00 0.000000e+00 0.000000e+00
7.260000e-01 1.282500e-01 0.000000e+00
9.075000e-01 1.282500e-01 0.000000e+00
1.089000e+00 1.282500e-01 0.000000e+00
1.270500e+00 1.282500e-01 0.000000e+00
1.452000e+00 1.282500e-01 0.000000e+00
7.260000e-01 2.565000e-01 0.000000e+00
9.075000e-01 2.565000e-01 0.000000e+00
1.089000e+00 2.565000e-01 0.000000e+00
1.270500e+00 2.565000e-01 0.000000e+00
1.452000e+00 2.565000e-01 0.000000e+00
7.260000e-01 3.847500e-01 0.000000e+00
9.075000e-01 3.847500e-01 0.000000e+00
1.089000e+00 3.847500e-01 0.000000e+00
1.270500e+00 3.847500e-01 0.000000e+00
1.452000e+00 3.847500e-01 0.000000e+00
7.260000e-01 5.130000e-01 0.000000e+00
9.075000e-01 5.130000e-01 0.000000e+00
1.089000e+00 5.130000e-01 0.000000e+00
1.270500e+00 5.130000e-01 0.000000e+00
1.452000e+00 5.130000e-01 0.000000e+00
1.452000e+00 0.000000e+00 0.000000e+00
1.633500e+00 0.000000e+00 0.000000e+00
1.815000e+00 0.000000e+00 0.000000e+00
1.996500e+00 0.000000e+00 0.000000e+00
2.178000e+00 0.000000e+00 0.000000e+00
1.452000e+00 1.282500e-01 0.000000e+00
1.633500e+00 1.282500e-01 0.000000e+00
1.815000e+00 1.282500e-01 0.000000e+00
1.996500e+00 1.282500e-01 0.000000e+00
2.178000e+00 1.282500e-01 0.000000e+00
1.452000e+00 2.565000e-01 0.000000e+00
1.633500e+00 2.565000e-01 0.000000e+00
1.815000e+00 2.565000e-01 0.000000e+00
1.996500e+00 2.565000e-01 0.000000e+00
2.178000e+00 2.565000e-01 0.000000e+00
1.452000e+00 3.847500e-01 0.000000e+00
1.633500e+00 3.847500e-01 0.000000e+00
1.815000e+00 3.847500e-01 0.000000e+00
1.996500e+00 3.847500e-01 0.000000e+00
2.178000e+00 3.847500e-01 0.000000e+00
1.452000e+00 5.130000e-01 0.000000e+00
1.633500e+00 5.130000e-01 0.000000e+00
1.815000e+00 5.130000e-01 0.000000e+00
1.996500e+00 5.130000e-01 0.000000e+00
2.178000e+00 5.130000e-01 0.000000e+00
2.178000e+00 0.000000e+00 0.000000e+00
2.359500e+00 0.000000e+00 0.000000e+00
2.541000e+00 0.000000e+00 0.000000e+00
2.722500e+00 0.000000e+00 0.000000e+00
2.904000e+00 0.000000e+00 0.000000e+00
2.178000e+00 1.282500e-01 0.000000e+00
2.359500e+00 1.282500e-01 0.000000e+00
2.541000e+00 1.282500e-01 0.000000e+00
2.722500e+00 1.282500e-01 0.000000e+00
2.904000e+00 1.282500e-01 0.000000e+00
2.178000e+00 2.565000e-01 0.000000e+00
2.359500e+00 2.565000e-01 0.000000e+00
2.541000e+00 2.565000e-01 0.000000e+00
2.722500e+00 2.565000e-01 0.000000e+00
2.904000e+00 2.565000e-01 0.000000e+00
2.178000e+00 3.847500e-01 0.000000e+00
2.359500e+00 3.847500e-01 0.000000e+00
2.541000e+00 3.847500e-01 0.000000e+00
2.722500e+00 3.847500e-01 0.000000e+00
2.904000e+00 3.847500e-01 0.000000e+00
2.178000e+00 5.130000e-01 0.000000e+00
2.359500e+00 5.130000e-01 0.000000e+00
2.541000e+00 5.130000e-01 0.000000e+00
2.722500e+00 5.130000e-01 0.000000e+00
2.904000e+00 5.130000e-01 0.000000e+00
2.904000e+00 0.000000e+00 0.000000e+00
3.085500e+00 0.000000e+00 0.000000e+00
3.267000e+00 0.000000e+00 0.000000e+00
3.448500e+00 0.000000e+00 0.000000e+00
3.630000e+00 0.000000e+00 0.000000e+00
2.904000e+00 1.282500e-01 0.000000e+00
3.085500e+00 1.282500e-01 0.000000e+00
3.267000e+00 1.282500e-01 0.000000e+00
3.448500e+00 1.282500e-01 0.000000e+00
3.630000e+00 1.282500e-01 0.000000e+00
2.904000e+00 2.565000e-01 0.000000e+00
3.085500e+00 2.565000e-01 0.000000e+00
3.267000e+00 2.565000e-01 0.000000e+00
3.448500e+00 2.565000e-01 0.000000e+00
3.630000e+00 2.565000e-01 0.000000e+00
2.904000e+00 3.847500e-01 0.000000e+00
3.085500e+00 3.847500e-01 0.000000e+00
3.267000e+00 3.847500e-01 0.000000e+00
3.448500e+00 3.847500e-01 0.000000e+00
3.630000e+00 3.847500e-01 0.000000e+00
2.904000e+00 5.130000e-01 0.000000e+00
[...]
<PointData>
<DataArray type="Float32" Name="V1" format="ascii">
0.000000e+00
0.000000e+00
0.000000e+00
0.000000e+00
0.000000e+00
1.264110e-02
1.103400e-02
9.650540e-03
8.490660e-03
7.554390e-03
2.028400e-02
1.822690e-02
1.639300e-02
1.478210e-02
1.339440e-02
2.292870e-02
2.157870e-02
2.022730e-02
1.887430e-02
1.751990e-02
2.057510e-02
2.108930e-02
2.115340e-02
2.076730e-02
1.993100e-02
0.000000e+00
0.000000e+00
0.000000e+00
0.000000e+00
0.000000e+00
7.554390e-03
6.502020e-03
5.702100e-03
5.154620e-03
4.859590e-03
1.339440e-02
1.183140e-02
1.060590e-02
9.717870e-03
9.167240e-03
1.751990e-02
1.598820e-02
1.471150e-02
1.368970e-02
1.292290e-02
1.993100e-02
1.897240e-02
1.801880e-02
1.707020e-02
1.612670e-02
0.000000e+00
0.000000e+00
0.000000e+00
0.000000e+00
0.000000e+00
4.859590e-03
4.608100e-03
4.434310e-03
4.338230e-03
4.319870e-03
9.167240e-03
8.695980e-03
8.342460e-03
8.106660e-03
7.988600e-03
1.292290e-02
1.226370e-02
1.172440e-02
1.130530e-02
1.100620e-02
1.612670e-02
1.531110e-02
1.458030e-02
1.393410e-02
1.337270e-02
0.000000e+00
0.000000e+00
0.000000e+00
0.000000e+00
0.000000e+00
4.319870e-03
3.793210e-03
4.008260e-03
4.965030e-03
6.663510e-03
7.988600e-03
6.834840e-03
7.010000e-03
8.514070e-03
1.134710e-02
1.100620e-02
9.124900e-03
9.005210e-03
1.064710e-02
1.405070e-02
1.337270e-02
1.066340e-02
9.993880e-03
1.136420e-02
1.477430e-02
0.000000e+00
0.000000e+00
0.000000e+00
0.000000e+00
0.000000e+00
6.663510e-03
5.949530e-03
3.314220e-03
-1.242430e-03
-7.720410e-03
1.134710e-02
9.173120e-03
4.096510e-03
-3.882760e-03
-1.476470e-02
1.405070e-02
9.670760e-03
2.346880e-03
-7.920990e-03
-2.113280e-02
1.477430e-02
7.442450e-03
-1.934690e-03
-1.335710e-02
-2.682480e-02
0.000000e+00
0.000000e+00
0.000000e+00
0.000000e+00
0.000000e+00
-7.720410e-03
-9.376120e-03
-1.134690e-02
-1.363260e-02
-1.623340e-02
-1.476470e-02
-1.673580e-02
-1.941300e-02
-2.279630e-02
-2.688570e-02
-2.113280e-02
-2.207910e-02
-2.419850e-02
-2.749110e-02
-3.195680e-02
-2.682480e-02
-2.540600e-02
-2.570330e-02
-2.771690e-02
-3.144670e-02
0.000000e+00
0.000000e+00
0.000000e+00
0.000000e+00
0.000000e+00
-1.623340e-02
-1.612160e-02
-1.468840e-02
-1.193390e-02
-7.858120e-03
-2.688570e-02
-2.623940e-02
-2.360330e-02
-1.897750e-02
-1.236180e-02
-3.195680e-02
-3.035350e-02
-2.674470e-02
-2.113060e-02
-1.351100e-02
-3.144670e-02
-2.846370e-02
-2.411260e-02
-1.839330e-02
-1.130580e-02
0.000000e+00
0.000000e+00
0.000000e+00
0.000000e+00
0.000000e+00
-7.858120e-03
-5.667090e-03
-3.530750e-03
-1.449090e-03
5.778760e-04
-1.236180e-02
-8.722280e-03
-5.205500e-03
-1.811450e-03
1.459890e-03
-1.351100e-02
-9.165580e-03
-5.024270e-03
-1.087060e-03
2.646040e-03
-1.130580e-02
-6.996990e-03
-2.987040e-03
7.240680e-04
4.136330e-03
0.000000e+00
0.000000e+00
0.000000e+00
0.000000e+00
0.000000e+00
5.778760e-04
2.638180e-03
4.267300e-03
5.465240e-03
6.232000e-03
1.459890e-03
4.851950e-03
7.552330e-03
9.561040e-03
1.087810e-02
2.646040e-03
6.641320e-03
9.855120e-03
1.228740e-02
1.393820e-02
4.136330e-03
8.006300e-03
1.117560e-02
1.364440e-02
1.541240e-02
0.000000e+00
0.000000e+00
0.000000e+00
0.000000e+00
0.000000e+00
6.232000e-03
6.942180e-03
7.649460e-03
8.353830e-03
9.055290e-03
1.087810e-02
1.213350e-02
1.335080e-02
1.453000e-02
1.567120e-02
1.393820e-02
1.557380e-02
1.710400e-02
1.852860e-02
1.984770e-02
1.541240e-02
1.726330e-02
1.890900e-02
2.034950e-02
2.158470e-02
2.057510e-02
2.108930e-02
2.115340e-02
2.076730e-02
1.993100e-02
2.078850e-02
2.097810e-02
2.099740e-02
2.084620e-02
2.052460e-02
2.103660e-02
2.096740e-02
2.091390e-02
2.087590e-02
2.085350e-02
2.131930e-02
2.105720e-02
2.090290e-02
2.085640e-02
2.091770e-02
2.163650e-02
2.124750e-02
2.096450e-02
2.078780e-02
2.071720e-02
1.993100e-02
1.897240e-02
1.801880e-02
1.707020e-02
1.612670e-02
2.052460e-02
2.005920e-02
1.950740e-02
1.886930e-02
1.814490e-02
2.085350e-02
2.073610e-02
2.048710e-02
2.010640e-02
1.959420e-02
2.091770e-02
2.100310e-02
2.095770e-02
2.078140e-02
2.047440e-02
2.071720e-02
2.086020e-02
2.091930e-02
2.089440e-02
2.078550e-02
1.612670e-02
1.531110e-02
1.458030e-02
1.393410e-02
1.337270e-02
1.814490e-02
1.734060e-02
1.656420e-02
1.581550e-02
1.509480e-02
1.959420e-02
1.881150e-02
1.803560e-02
1.726650e-02
1.650410e-02
2.047440e-02
1.972380e-02
1.899470e-02
1.828700e-02
1.760070e-02
2.078550e-02
2.007740e-02
1.944130e-02
1.887700e-02
1.838460e-02
1.337270e-02
1.066340e-02
9.993880e-03
1.136420e-02
1.477430e-02
1.509480e-02
1.169590e-02
1.058990e-02
1.177690e-02
1.525690e-02
1.650410e-02
1.255490e-02
1.112270e-02
1.220760e-02
1.580960e-02
1.760070e-02
1.324050e-02
1.159230e-02
1.265630e-02
1.643220e-02
1.838460e-02
1.375270e-02
1.199870e-02
1.312280e-02
1.712490e-02
1.477430e-02
7.442450e-03
-1.934690e-03
-1.335710e-02
-2.682480e-02
1.525690e-02
5.703580e-03
-4.591600e-03
-1.562860e-02
-2.740750e-02
1.580960e-02
4.979210e-03
-5.655610e-03
-1.609490e-02
-2.633870e-02
1.643220e-02
5.269330e-03
-5.126720e-03
-1.475590e-02
-2.361820e-02
1.712490e-02
6.573940e-03
-3.004920e-03
-1.161170e-02
-1.924620e-02
-2.682480e-02
-2.540600e-02
-2.570330e-02
-2.771690e-02
-3.144670e-02
-2.740750e-02
-2.379970e-02
-2.278000e-02
-2.434850e-02
-2.850510e-02
-2.633870e-02
-2.092530e-02
-1.870390e-02
-1.967420e-02
-2.383640e-02
-2.361820e-02
-1.678290e-02
-1.347490e-02
-1.369410e-02
-1.744060e-02
-1.924620e-02
-1.137240e-02
-7.093040e-03
-6.408130e-03
-9.317680e-03
-3.144670e-02
-2.846370e-02
-2.411260e-02
-1.839330e-02
-1.130580e-02
-2.850510e-02
-2.697400e-02
-2.339010e-02
-1.775320e-02
-1.006350e-02
-2.383640e-02
-2.360000e-02
-2.082960e-02
-1.552520e-02
-7.686880e-03
-1.744060e-02
-1.834160e-02
-1.643120e-02
-1.170930e-02
-4.175840e-03
-9.317680e-03
-1.119900e-02
-1.019480e-02
-6.305320e-03
4.695930e-04
-1.130580e-02
-6.996990e-03
-2.987040e-03
7.240680e-04
4.136330e-03
-1.006350e-02
-5.853460e-03
-1.913670e-03
1.755840e-03
5.155060e-03
-7.686880e-03
-3.722990e-03
-2.016760e-05
3.421600e-03
6.602310e-03
-4.175840e-03
-6.056000e-04
2.693470e-03
5.721360e-03
8.478090e-03
4.695930e-04
3.498720e-03
6.227230e-03
8.655120e-03
1.078240e-02
4.136330e-03
8.006300e-03
1.117560e-02
1.364440e-02
1.541240e-02
5.155060e-03
9.154350e-03
1.234980e-02
1.474140e-02
1.632920e-02
6.602310e-03
1.051850e-02
1.357550e-02
1.577340e-02
1.711220e-02
8.478090e-03
1.209860e-02
1.485270e-02
1.674030e-02
1.776140e-02
1.078240e-02
1.389480e-02
1.618140e-02
1.764200e-02
1.827680e-02
1.541240e-02
1.726330e-02
1.890900e-02
2.034950e-02
2.158470e-02
1.632920e-02
1.816870e-02
1.981440e-02
2.126640e-02
2.252460e-02
1.711220e-02
1.890370e-02
2.050580e-02
2.191840e-02
2.314140e-02
1.776140e-02
1.946850e-02
2.098310e-02
2.230540e-02
2.343520e-02
1.827680e-02
1.986290e-02
2.124640e-02
2.242750e-02
2.340600e-02
2.163650e-02
2.124750e-02
2.096450e-02
2.078780e-02
2.071720e-02
2.197900e-02
2.159870e-02
2.130890e-02
2.110960e-02
2.100070e-02
2.233590e-02
2.198900e-02
2.171340e-02
2.150910e-02
2.137600e-02
2.270730e-02
2.241850e-02
2.217820e-02
2.198630e-02
2.184300e-02
2.309330e-02
2.288720e-02
2.270320e-02
2.254130e-02
2.240160e-02
2.071720e-02
2.086020e-02
2.091930e-02
2.089440e-02
2.078550e-02
2.100070e-02
2.102220e-02
2.103500e-02
2.103930e-02
2.103480e-02
2.137600e-02
2.128940e-02
2.125310e-02
2.126710e-02
2.133130e-02
2.184300e-02
2.166190e-02
2.157350e-02
2.157790e-02
2.167500e-02
2.240160e-02
2.213960e-02
2.199630e-02
2.197170e-02
2.206580e-02
2.078550e-02
2.007740e-02
1.944130e-02
1.887700e-02
1.838460e-02
2.103480e-02
2.024030e-02
1.967020e-02
1.932440e-02
1.920310e-02
2.133130e-02
2.045730e-02
1.994280e-02
1.978780e-02
1.999240e-02
2.167500e-02
2.072830e-02
2.025910e-02
2.026710e-02
2.075250e-02
2.206580e-02
2.105350e-02
2.061900e-02
2.076230e-02
2.148340e-02
1.838460e-02
1.375270e-02
1.199870e-02
1.312280e-02
1.712490e-02
1.920310e-02
1.464280e-02
1.294510e-02
1.410990e-02
1.813730e-02
1.999240e-02
1.569330e-02
1.414360e-02
1.534340e-02
1.929280e-02
2.075250e-02
1.690400e-02
1.559420e-02
1.682340e-02
2.059140e-02
2.148340e-02
1.827490e-02
1.729700e-02
1.854980e-02
2.203310e-02
1.712490e-02
6.573940e-03
-3.004920e-03
-1.161170e-02
-1.924620e-02
1.813730e-02
1.005510e-02
2.148300e-03
-5.583090e-03
-1.313910e-02
1.929280e-02
1.403520e-02
8.011910e-03
1.222960e-03
-6.331660e-03
2.059140e-02
1.851420e-02
1.458590e-02
8.806500e-03
1.176010e-03
2.203310e-02
2.349210e-02
2.187030e-02
1.716750e-02
9.383950e-03
-1.924620e-02
-1.137240e-02
-7.093040e-03
-6.408130e-03
-9.317680e-03
-1.313910e-02
-5.891190e-03
-1.606870e-03
-2.861420e-04
-1.928990e-03
-6.331660e-03
1.503180e-04
4.473840e-03
6.638900e-03
6.645500e-03
1.176010e-03
6.752110e-03
1.114910e-02
1.436700e-02
1.640580e-02
9.383950e-03
1.391420e-02
1.841890e-02
2.289820e-02
2.735190e-02
-9.317680e-03
-1.119900e-02
-1.019480e-02
-6.305320e-03
4.695930e-04
-1.928990e-03
-3.803840e-03
-3.243150e-03
-2.469270e-04
5.184840e-03
6.645500e-03
4.932480e-03
4.968070e-03
6.752280e-03
1.028510e-02
1.640580e-02
1.501000e-02
1.443880e-02
1.469230e-02
1.577040e-02
2.735190e-02
2.642870e-02
2.516910e-02
2.357310e-02
2.164080e-02
4.695930e-04
3.498720e-03
6.227230e-03
8.655120e-03
1.078240e-02
5.184840e-03
7.777990e-03
1.002450e-02
1.192450e-02
1.347780e-02
1.028510e-02
1.220530e-02
1.383120e-02
1.516280e-02
1.620010e-02
1.577040e-02
1.678060e-02
1.764710e-02
1.837010e-02
1.894940e-02
2.164080e-02
2.150390e-02
2.147240e-02
2.154630e-02
2.172560e-02
1.078240e-02
1.389480e-02
1.618140e-02
1.764200e-02
1.827680e-02
1.347780e-02
1.579880e-02
1.745600e-02
1.844950e-02
1.877930e-02
1.620010e-02
1.773180e-02
1.876490e-02
1.929950e-02
1.933550e-02
1.894940e-02
1.969400e-02
2.010820e-02
2.019210e-02
1.994560e-02
2.172560e-02
2.168520e-02
2.148570e-02
2.112710e-02
2.060940e-02
1.827680e-02
1.986290e-02
2.124640e-02
2.242750e-02
2.340600e-02
1.877930e-02
2.049450e-02
2.185590e-02
2.286350e-02
2.351720e-02
1.933550e-02
2.114560e-02
2.246470e-02
2.329260e-02
2.362940e-02
1.994560e-02
2.181630e-02
2.307270e-02
2.371480e-02
2.374260e-02
2.060940e-02
2.250640e-02
2.367990e-02
2.413010e-02
2.385680e-02
2.309330e-02
2.288720e-02
2.270320e-02
2.254130e-02
2.240160e-02
2.348320e-02
2.331700e-02
2.316940e-02
2.304040e-02
2.293010e-02
2.386930e-02
2.373560e-02
2.361920e-02
2.352030e-02
2.343870e-02
2.425160e-02
2.414300e-02
2.405280e-02
2.398100e-02
2.392760e-02
2.463000e-02
2.453920e-02
2.447000e-02
2.442250e-02
2.439660e-02
2.240160e-02
2.213960e-02
2.199630e-02
2.197170e-02
2.206580e-02
2.293010e-02
2.266080e-02
2.250220e-02
2.245430e-02
2.251690e-02
2.343870e-02
2.317360e-02
2.301140e-02
2.295210e-02
2.299580e-02
2.392760e-02
2.367790e-02
2.352380e-02
2.346520e-02
2.350230e-02
2.439660e-02
2.417360e-02
2.403930e-02
2.399360e-02
2.403660e-02
2.206580e-02
2.105350e-02
2.061900e-02
2.076230e-02
2.148340e-02
2.251690e-02
2.161900e-02
2.122900e-02
2.134690e-02
2.197260e-02
2.299580e-02
2.223170e-02
2.190010e-02
2.200100e-02
2.253450e-02
2.350230e-02
2.289150e-02
2.263230e-02
2.272480e-02
2.316900e-02
2.403660e-02
2.359840e-02
2.342560e-02
2.351820e-02
2.387610e-02
2.148340e-02
1.827490e-02
1.729700e-02
1.854980e-02
2.203310e-02
2.197260e-02
1.974690e-02
1.912680e-02
2.011240e-02
2.270370e-02
2.253450e-02
2.112970e-02
2.081810e-02
2.159950e-02
2.347400e-02
2.316900e-02
2.242340e-02
2.237080e-02
2.301100e-02
2.434420e-02
2.387610e-02
2.362800e-02
2.378500e-02
2.434710e-02
2.531410e-02
2.203310e-02
2.349210e-02
2.187030e-02
1.716750e-02
9.383950e-03
2.270370e-02
2.734640e-02
2.863390e-02
2.656620e-02
2.114320e-02
2.347400e-02
2.989030e-02
3.327090e-02
3.361600e-02
3.092550e-02
2.434420e-02
3.112370e-02
3.578130e-02
3.831690e-02
3.873070e-02
2.531410e-02
3.104670e-02
3.616510e-02
4.066910e-02
4.455880e-02
9.383950e-03
1.391420e-02
1.841890e-02
2.289820e-02
2.735190e-02
2.114320e-02
2.471200e-02
2.882070e-02
3.346920e-02
3.865750e-02
3.092550e-02
3.413090e-02
3.799760e-02
4.252530e-02
4.771430e-02
3.873070e-02
4.217100e-02
4.594960e-02
5.006670e-02
5.452210e-02
4.455880e-02
4.883210e-02
5.267690e-02
5.609320e-02
5.908100e-02
2.735190e-02
2.642870e-02
2.516910e-02
2.357310e-02
2.164080e-02
3.865750e-02
3.641530e-02
3.353090e-02
3.000450e-02
2.583600e-02
4.771430e-02
4.411170e-02
3.985990e-02
3.495870e-02
2.940830e-02
5.452210e-02
4.951810e-02
4.415600e-02
3.843590e-02
3.235760e-02
5.908100e-02
5.263440e-02
4.641940e-02
4.043590e-02
3.468390e-02
2.164080e-02
2.150390e-02
2.147240e-02
2.154630e-02
2.172560e-02
2.583600e-02
2.539850e-02
2.502510e-02
2.471570e-02
2.447050e-02
2.940830e-02
2.877690e-02
2.813030e-02
2.746850e-02
2.679140e-02
3.235760e-02
3.163930e-02
3.078830e-02
2.980460e-02
2.868830e-02
3.468390e-02
3.398540e-02
3.299880e-02
3.172410e-02
3.016120e-02
2.172560e-02
2.168520e-02
2.148570e-02
2.112710e-02
2.060940e-02
2.447050e-02
2.358400e-02
2.278130e-02
2.206230e-02
2.142720e-02
2.679140e-02
2.522890e-02
2.395520e-02
2.297040e-02
2.227440e-02
2.868830e-02
2.662000e-02
2.500770e-02
2.385140e-02
2.315100e-02
3.016120e-02
2.775720e-02
2.593860e-02
2.470520e-02
2.405720e-02
2.060940e-02
2.250640e-02
2.367990e-02
2.413010e-02
2.385680e-02
2.142720e-02
2.316550e-02
2.419310e-02
2.450990e-02
2.411600e-02
2.227440e-02
2.382060e-02
2.468470e-02
2.486670e-02
2.436670e-02
2.315100e-02
2.447160e-02
2.515470e-02
2.520050e-02
2.460890e-02
2.405720e-02
2.511860e-02
2.560330e-02
2.551130e-02
2.484260e-02
2.463000e-02
2.453920e-02
2.447000e-02
2.442250e-02
2.439660e-02
2.499690e-02
2.492920e-02
2.488310e-02
2.485850e-02
2.485540e-02
2.534870e-02
2.530670e-02
2.528470e-02
2.528250e-02
2.530030e-02
2.568540e-02
2.567160e-02
2.567470e-02
2.569460e-02
2.573130e-02
2.600690e-02
2.602400e-02
2.605320e-02
2.609470e-02
2.614840e-02
2.439660e-02
2.417360e-02
2.403930e-02
2.399360e-02
2.403660e-02
2.485540e-02
2.466000e-02
2.454970e-02
2.452450e-02
2.458430e-02
2.530030e-02
2.513590e-02
2.505080e-02
2.504520e-02
2.511900e-02
2.573130e-02
2.560120e-02
2.554270e-02
2.555580e-02
2.564050e-02
2.614840e-02
2.605600e-02
2.602530e-02
2.605620e-02
2.614880e-02
2.403660e-02
2.359840e-02
2.342560e-02
2.351820e-02
2.387610e-02
2.458430e-02
2.426150e-02
2.417190e-02
2.431550e-02
2.469230e-02
2.511900e-02
2.490000e-02
2.488240e-02
2.506600e-02
2.545090e-02
2.564050e-02
2.551390e-02
2.555700e-02
2.576960e-02
2.615180e-02
2.614880e-02
2.610320e-02
2.619580e-02
2.642640e-02
2.679510e-02
2.387610e-02
2.362800e-02
2.378500e-02
2.434710e-02
2.531410e-02
2.469230e-02
2.467510e-02
2.498400e-02
2.561910e-02
2.658020e-02
2.545090e-02
2.564780e-02
2.609200e-02
2.678370e-02
2.772280e-02
2.615180e-02
2.654600e-02
2.710910e-02
2.784110e-02
2.874190e-02
2.679510e-02
2.736990e-02
2.803520e-02
2.879110e-02
2.963750e-02
2.531410e-02
3.104670e-02
3.616510e-02
4.066910e-02
4.455880e-02
2.658020e-02
3.099320e-02
3.541150e-02
3.983520e-02
4.426420e-02
2.772280e-02
3.109570e-02
3.482060e-02
3.889750e-02
4.332640e-02
2.874190e-02
3.135420e-02
3.439230e-02
3.785610e-02
4.174560e-02
2.963750e-02
3.176880e-02
3.412660e-02
3.671090e-02
3.952170e-02
4.455880e-02
4.883210e-02
5.267690e-02
5.609320e-02
5.908100e-02
4.426420e-02
4.928460e-02
5.335740e-02
5.648240e-02
5.865960e-02
4.332640e-02
4.850350e-02
5.249670e-02
5.530620e-02
5.693180e-02
4.174560e-02
4.648860e-02
5.009490e-02
5.256450e-02
5.389750e-02
3.952170e-02
4.324000e-02
4.615200e-02
4.825750e-02
4.955660e-02
5.908100e-02
5.263440e-02
4.641940e-02
4.043590e-02
3.468390e-02
5.865960e-02
5.284380e-02
4.730350e-02
4.203860e-02
3.704920e-02
5.693180e-02
5.209310e-02
4.745280e-02
4.301110e-02
3.876780e-02
5.389750e-02
5.038210e-02
4.686740e-02
4.335320e-02
3.983960e-02
4.955660e-02
4.771100e-02
4.554720e-02
4.306510e-02
4.026470e-02
3.468390e-02
3.398540e-02
3.299880e-02
3.172410e-02
3.016120e-02
3.704920e-02
3.561120e-02
3.407820e-02
3.245030e-02
3.072740e-02
3.876780e-02
3.675180e-02
3.481110e-02
3.294570e-02
3.115560e-02
3.983960e-02
3.740730e-02
3.519750e-02
3.321030e-02
3.144570e-02
4.026470e-02
3.757760e-02
3.523740e-02
3.324420e-02
3.159790e-02
3.016120e-02
2.775720e-02
2.593860e-02
2.470520e-02
2.405720e-02
3.072740e-02
2.863510e-02
2.701350e-02
2.586240e-02
2.518210e-02
3.115560e-02
2.936740e-02
2.794220e-02
2.687990e-02
2.618060e-02
3.144570e-02
2.995420e-02
2.872490e-02
2.775770e-02
2.705260e-02
3.159790e-02
3.039550e-02
2.936140e-02
2.849570e-02
2.779830e-02
2.405720e-02
2.511860e-02
2.560330e-02
2.551130e-02
2.484260e-02
2.518210e-02
2.569920e-02
2.587120e-02
2.569780e-02
2.517920e-02
2.618060e-02
2.621560e-02
2.611590e-02
2.588160e-02
2.551260e-02
2.705260e-02
2.666760e-02
2.633760e-02
2.606270e-02
2.584290e-02
2.779830e-02
2.705520e-02
2.653620e-02
2.624120e-02
2.617020e-02
2.600690e-02
2.602400e-02
2.605320e-02
2.609470e-02
2.614840e-02
2.630990e-02
2.635610e-02
2.641100e-02
2.647460e-02
2.654690e-02
2.659390e-02
2.666760e-02
2.674660e-02
2.683090e-02
2.692060e-02
2.685910e-02
2.695840e-02
2.705990e-02
2.716370e-02
2.726960e-02
2.710540e-02
2.722860e-02
2.735110e-02
2.747280e-02
2.759380e-02
2.614840e-02
2.605600e-02
2.602530e-02
2.605620e-02
2.614880e-02
2.654690e-02
2.648690e-02
2.648160e-02
2.653080e-02
2.663460e-02
2.692060e-02
2.689030e-02
2.690800e-02
2.697360e-02
2.708720e-02
2.726960e-02
2.726610e-02
2.730450e-02
2.738480e-02
2.750690e-02
2.759380e-02
2.761440e-02
2.767120e-02
2.776420e-02
2.789350e-02
2.614880e-02
2.610320e-02
2.619580e-02
2.642640e-02
2.679510e-02
2.663460e-02
2.664820e-02
2.677900e-02
2.702700e-02
2.739220e-02
2.708720e-02
2.715150e-02
2.731440e-02
2.757610e-02
2.793660e-02
2.750690e-02
2.761310e-02
2.780200e-02
2.807370e-02
2.842810e-02
2.789350e-02
2.803310e-02
2.824190e-02
2.851980e-02
2.886700e-02
2.679510e-02
2.736990e-02
2.803520e-02
2.879110e-02
2.963750e-02
2.739220e-02
2.801550e-02
2.872900e-02
2.953260e-02
3.042630e-02
2.793660e-02
2.857120e-02
2.929780e-02
3.011620e-02
3.102650e-02
2.842810e-02
2.903690e-02
2.974150e-02
3.054200e-02
3.143820e-02
2.886700e-02
2.941270e-02
3.006030e-02
3.080980e-02
3.166120e-02
2.963750e-02
3.176880e-02
3.412660e-02
3.671090e-02
3.952170e-02
3.042630e-02
3.231010e-02
3.435450e-02
3.655960e-02
3.892530e-02
3.102650e-02
3.270120e-02
3.447730e-02
3.635470e-02
3.833360e-02
3.143820e-02
3.294220e-02
3.449500e-02
3.609640e-02
3.774660e-02
3.166120e-02
3.303310e-02
3.440760e-02
3.578460e-02
3.716430e-02
3.952170e-02
4.324000e-02
4.615200e-02
4.825750e-02
4.955660e-02
3.892530e-02
4.191560e-02
4.426750e-02
4.598100e-02
4.705610e-02
3.833360e-02
4.071320e-02
4.258940e-02
4.396230e-02
4.483190e-02
3.774660e-02
3.963280e-02
4.111770e-02
4.220150e-02
4.288410e-02
3.716430e-02
3.867440e-02
3.985250e-02
4.069860e-02
4.121280e-02
4.955660e-02
4.771100e-02
4.554720e-02
4.306510e-02
4.026470e-02
4.705610e-02
4.562810e-02
4.392370e-02
4.194300e-02
3.968600e-02
4.483190e-02
4.375430e-02
4.243480e-02
4.087320e-02
3.906970e-02
4.288410e-02
4.208980e-02
4.108030e-02
3.985570e-02
3.841580e-02
4.121280e-02
4.063460e-02
3.986040e-02
3.889030e-02
3.772420e-02
4.026470e-02
3.757760e-02
3.523740e-02
3.324420e-02
3.159790e-02
3.968600e-02
3.735770e-02
3.528820e-02
3.347770e-02
3.192620e-02
3.906970e-02
3.706930e-02
3.525450e-02
3.362540e-02
3.218200e-02
3.841580e-02
3.671250e-02
3.513630e-02
3.368720e-02
3.236530e-02
3.772420e-02
3.628720e-02
3.493360e-02
3.366320e-02
3.247610e-02
3.159790e-02
3.039550e-02
2.936140e-02
2.849570e-02
2.779830e-02
3.192620e-02
3.077000e-02
2.976560e-02
2.891320e-02
2.821260e-02
3.218200e-02
3.106840e-02
3.009170e-02
2.925210e-02
2.854940e-02
3.236530e-02
3.129070e-02
3.033970e-02
2.951240e-02
2.880860e-02
3.247610e-02
3.143690e-02
3.050960e-02
2.969410e-02
2.899040e-02
2.779830e-02
2.705520e-02
2.653620e-02
2.624120e-02
2.617020e-02
2.821260e-02
2.746840e-02
2.691640e-02
2.655660e-02
2.638910e-02
2.854940e-02
2.782430e-02
2.725600e-02
2.684450e-02
2.658980e-02
2.880860e-02
2.812310e-02
2.755510e-02
2.710480e-02
2.677210e-02
2.899040e-02
2.836460e-02
2.781360e-02
2.733750e-02
2.693620e-02
2.710540e-02
2.722860e-02
2.735110e-02
2.747280e-02
2.759380e-02
2.733260e-02
2.747100e-02
2.760810e-02
2.774390e-02
2.787840e-02
2.754220e-02
2.769360e-02
2.784290e-02
2.799010e-02
2.813510e-02
2.773410e-02
2.789630e-02
2.805540e-02
2.821120e-02
2.836390e-02