<?xml version="1.0"?>
<VTKFile type="UnstructuredGrid" version="0.1" byte_order="LittleEndian" compressor="vtkZLibDataCompressor">
<UnstructuredGrid>
<Piece NumberOfPoints="2500" NumberOfCells="1600">
<Points>
<DataArray type="Float32" NumberOfComponents="3" format="ascii">
-3.630000e+00 0.000000e+00 0.000000e+00
-3.448500e+00 0.000000e+00 0.000000e+00
-3.267000e+00 0.000000e+00 0.000000e+00
-3.085500e+00 0.000000e+00 0.000000e+00
-2.904000e+00 0.000000e+00 0.000000e+00
-3.630000e+00 1.282500e-01 0.000000e+00
-3.448500e+00 1.282500e-01 0.000000e+00
-3.267000e+00 1.282500e-01 0.000000e+00
-3.085500e+00 1.282500e-01 0.000000e+00
-2.904000e+00 1.282500e-01 0.000000e+00
-3.630000e+00 2.565000e-01 0.000000e+00
-3.448500e+00 2.565000e-01 0.000000e+00
-3.267000e+00 2.565000e-01 0.000000e+00
-3.085500e+00 2.565000e-01 0.000000e+00
-2.904000e+00 2.565000e-01 0.000000e+00
-3.630000e+00 3.847500e-01 0.000000e+00
-3.448500e+00 3.847500e-01 0.000000e+00
-3.267000e+00 3.847500e-01 0.000000e+00
-3.085500e+00 3.847500e-01 0.000000e+00
-2.904000e+00 3.847500e-01 0.000000e+00
-3.630000e+00 5.130000e-01 0.000000e+00
-3.448500e+00 5.130000e-01 0.000000e+00
-3.267000e+00 5.130000e-01 0.000000e+00
-3.085500e+00 5.130000e-01 0.000000e+00
-2.904000e+00 5.130000e-01 0.000000e+00
-2.904000e+00 0.000000e+00 0.000000e+00
-2.722500e+00 0.000000e+00 0.000000e+00
-2.541000e+00 0.000000e+00 0.000000e+00
-2.359500e+00 0.000000e+00 0.000000e+00
-2.178000e+00 0.000000e+00 0.000000e+00
-2.904000e+00 1.282500e-01 0.000000e+00
-2.722500e+00 1.282500e-01 0.000000e+00
-2.541000e+00 1.282500e-01 0.000000e+00
-2.359500e+00 1.282500e-01 0.000000e+00
-2.178000e+00 1.282500e-01 0.000000e+00
-2.904000e+00 2.565000e-01 0.000000e+00
-2.722500e+00 2.565000e-01 0.000000e+00
-2.541000e+00 2.565000e-01 0.000000e+00
-2.359500e+00 2.565000e-01 0.000000e+00
-2.178000e+00 2.565000e-01 0.000000e+00
-2.904000e+00 3.847500e-01 0.000000e+00
-2.722500e+00 3.847500e-01 0.000000e+00
-2.541000e+00 3.847500e-01 0.000000e+00
-2.359500e+00 3.847500e-01 0.000000e+00
-2.178000e+00 3.847500e-01 0.000000e+00
-2.904000e+00 5.130000e-01 0.000000e+00
-2.722500e+00 5.130000e-01 0.000000e+00
-2.541000e+00 5.130000e-01 0.000000e+00
-2.359500e+00 5.130000e-01 0.000000e+00
-2.178000e+00 5.130000e-01 0.000000e+00
-2.178000e+00 0.000000e+00 0.000000e+00
-1.996500e+00 0.000000e+00 0.000000e+00
-1.815000e+00 0.000000e+00 0.000000e+00
-1.633500e+00 0.000000e+00 0.000000e+00
-1.452000e+00 0.000000e+00 0.000000e+00
-2.178000e+00 1.282500e-01 0.000000e+00
-1.996500e+00 1.282500e-01 0.000000e+00
-1.815000e+00 1.282500e-01 0.000000e+00
-1.633500e+00 1.282500e-01 0.000000e+00
-1.452000e+00 1.282500e-01 0.000000e+00
-2.178000e+00 2.565000e-01 0.000000e+00
-1.996500e+00 2.565000e-01 0.000000e+00
-1.815000e+00 2.565000e-01 0.000000e+00
-1.633500e+00 2.565000e-01 0.000000e+00
-1.452000e+00 2.565000e-01 0.000000e+00
-2.178000e+00 3.847500e-01 0.000000e+00
-1.996500e+00 3.847500e-01 0.000000e+00
-1.815000e+00 3.847500e-01 0.000000e+00
-1.633500e+00 3.847500e-01 0.000000e+00
-1.452000e+00 3.847500e-01 0.000000e+00
-2.178000e+00 5.130000e-01 0.000000e+00
-1.996500e+00 5.130000e-01 0.000000e+00
-1.815000e+00 5.130000e-01 0.000000e+00
-1.633500e+00 5.130000e-01 0.000000e+00
-1.452000e+00 5.130000e-01 0.000000e+00
-1.452000e+00 0.000000e+00 0.000000e+00
-1.270500e+00 0.000000e+00 0.000000e+00
-1.089000e+00 0.000000e+00 0.000000e+00
-9.075000e-01 0.000000e+00 0.000000e+00
-7.260000e-01 0.000000e+00 0.000000e+00
-1.452000e+00 1.282500e-01 0.000000e+00
-1.270500e+00 1.282500e-01 0.000000e+00
-1.089000e+00 1.282500e-01 0.000000e+00
-9.075000e-01 1.282500e-01 0.000000e+00
-7.260000e-01 1.282500e-01 0.000000e+00
-1.452000e+00 2.565000e-01 0.000000e+00
-1.270500e+00 2.565000e-01 0.000000e+00
-1.089000e+00 2.565000e-01 0.000000e+00
-9.075000e-01 2.565000e-01 0.000000e+00
-7.260000e-01 2.565000e-01 0.000000e+00
-1.452000e+00 3.847500e-01 0.000000e+00
-1.270500e+00 3.847500e-01 0.000000e+00
-1.089000e+00 3.847500e-01 0.000000e+00
-9.075000e-01 3.847500e-01 0.000000e+00
-7.260000e-01 3.847500e-01 0.000000e+00
-1.452000e+00 5.130000e-01 0.000000e+00
-1.270500e+00 5.130000e-01 0.000000e+00
-1.089000e+00 5.130000e-01 0.000000e+00
-9.075000e-01 5.130000e-01 0.000000e+00
-7.260000e-01 5.130000e-01 0.000000e+00
-7.260000e-01 0.000000e+00 0.000000e+00
-5.445000e-01 0.000000e+00 0.000000e+00
-3.630000e-01 0.000000e+00 0.000000e+00
-1.815000e-01 0.000000e+00 0.000000e+00
0.000000e+00 0.000000e+00 0.000000e+00
-7.260000e-01 1.282500e-01 0.000000e+00
-5.445000e-01 1.282500e-01 0.000000e+00
-3.630000e-01 1.282500e-01 0.000000e+00
-1.815000e-01 1.282500e-01 0.000000e+00
0.000000e+00 1.282500e-01 0.000000e+00
-7.260000e-01 2.565000e-01 0.000000e+00
-5.445000e-01 2.565000e-01 0.000000e+00
-3.630000e-01 2.565000e-01 0.000000e+00
-1.815000e-01 2.565000e-01 0.000000e+00
0.000000e+00 2.565000e-01 0.000000e+00
-7.260000e-01 3.847500e-01 0.000000e+00
-5.445000e-01 3.847500e-01 0.000000e+00
-3.630000e-01 3.847500e-01 0.000000e+00
-1.815000e-01 3.847500e-01 0.000000e+00
0.000000e+00 3.847500e-01 0.000000e+00
-7.260000e-01 5.130000e-01 0.000000e+00
-5.445000e-01 5.130000e-01 0.000000e+00
-3.630000e-01 5.130000e-01 0.000000e+00
-1.815000e-01 5.130000e-01 0.000000e+00
0.000000e+00 5.130000e-01 0.000000e+00
0.000000e+00 0.000000e+00 0.000000e+00
1.815000e-01 0.000000e+00 0.000000e+00
3.630000e-01 0.000000e+00 0.000000e+00
5.445000e-01 0.000000e+00 0.000000e+00
7.260000e-01 0.000000e+00 0.000000e+00
0.000000e+00 1.282500e-01 0.000000e+00
1.815000e-01 1.282500e-01 0.000000e+00
3.630000e-01 1.282500e-01 0.000000e+00
5.445000e-01 1.282500e-01 0.000000e+00
7.260000e-01 1.282500e-01 0.000000e+00
0.000000e+00 2.565000e-01 0.000000e+00
1.815000e-01 2.565000e-01 0.000000e+00
3.630000e-01 2.565000e-01 0.000000e+00
5.445000e-01 2.565000e-01 0.000000e+00
7.260000e-01 2.565000e-01 0.000000e+00
0.000000e+00 3.847500e-01 0.000000e+00
1.815000e-01 3.847500e-01 0.000000e+00
3.630000e-01 3.847500e-01 0.000000e+00
5.445000e-01 3.847500e-01 0.000000e+00
7.260000e-01 3.847500e-01 0.000000e+00
0.000000e+00 5.130000e-01 0.000000e+00
1.815000e-01 5.130000e-01 0.000000e+00
3.630000e-01 5.130000e-01 0.000000e+00
5.445000e-01 5.130000e-01 0.000000e+00
7.260000e-01 5.130000e-01 0.000000e+00
7.260000e-01 0.000000e+00 0.000000e+00
9.075000e-01 0.000000e+00 0.000000e+00
1.089000e+00 0.000000e+00 0.000000e+00
1.270500e+00 0.000000e+00 0.000000e+00
1.452000e+00 0.000000e+00 0.000000e+00
7.260000e-01 1.282500e-01 0.000000e+00
9.075000e-01 1.282500e-01 0.000000e+00
1.089000e+00 1.282500e-01 0.000000e+00
1.270500e+00 1.282500e-01 0.000000e+00
1.452000e+00 1.282500e-01 0.000000e+00
7.260000e-01 2.565000e-01 0.000000e+00
9.075000e-01 2.565000e-01 0.000000e+00
1.089000e+00 2.565000e-01 0.000000e+00
1.270500e+00 2.565000e-01 0.000000e+00
1.452000e+00 2.565000e-01 0.000000e+00
7.260000e-01 3.847500e-01 0.000000e+00
9.075000e-01 3.847500e-01 0.000000e+00
1.089000e+00 3.847500e-01 0.000000e+00
1.270500e+00 3.847500e-01 0.000000e+00
1.452000e+00 3.847500e-01 0.000000e+00
7.260000e-01 5.130000e-01 0.000000e+00
9.075000e-01 5.130000e-01 0.000000e+00
1.089000e+00 5.130000e-01 0.000000e+00
1.270500e+00 5.130000e-01 0.000000e+00
1.452000e+00 5.130000e-01 0.000000e+00
1.452000e+00 0.000000e+00 0.000000e+00
1.633500e+00 0.000000e+00 0.000000e+00
1.815000e+00 0.000000e+00 0.000000e+00
1.996500e+00 0.000000e+00 0.000000e+00
2.178000e+00 0.000000e+00 0.000000e+00
1.452000e+00 1.282500e-01 0.000000e+00
1.633500e+00 1.282500e-01 0.000000e+00
1.815000e+00 1.282500e-01 0.000000e+00
1.996500e+00 1.282500e-01 0.000000e+00
2.178000e+00 1.282500e-01 0.000000e+00
1.452000e+00 2.565000e-01 0.000000e+00
1.633500e+00 2.565000e-01 0.000000e+00
1.815000e+00 2.565000e-01 0.000000e+00
1.996500e+00 2.565000e-01 0.000000e+00
2.178000e+00 2.565000e-01 0.000000e+00
1.452000e+00 3.847500e-01 0.000000e+00
1.633500e+00 3.847500e-01 0.000000e+00
1.815000e+00 3.847500e-01 0.000000e+00
1.996500e+00 3.847500e-01 0.000000e+00
2.178000e+00 3.847500e-01 0.000000e+00
1.452000e+00 5.130000e-01 0.000000e+00
1.633500e+00 5.130000e-01 0.000000e+00
1.815000e+00 5.130000e-01 0.000000e+00
1.996500e+00 5.130000e-01 0.000000e+00
2.178000e+00 5.130000e-01 0.000000e+00
2.178000e+00 0.000000e+00 0.000000e+00
2.359500e+00 0.000000e+00 0.000000e+00
2.541000e+00 0.000000e+00 0.000000e+00
2.722500e+00 0.000000e+00 0.000000e+00
2.904000e+00 0.000000e+00 0.000000e+00
2.178000e+00 1.282500e-01 0.000000e+00
2.359500e+00 1.282500e-01 0.000000e+00
2.541000e+00 1.282500e-01 0.000000e+00
2.722500e+00 1.282500e-01 0.000000e+00
2.904000e+00 1.282500e-01 0.000000e+00
2.178000e+00 2.565000e-01 0.000000e+00
2.359500e+00 2.565000e-01 0.000000e+00
2.541000e+00 2.565000e-01 0.000000e+00
2.722500e+00 2.565000e-01 0.000000e+00
2.904000e+00 2.565000e-01 0.000000e+00
2.178000e+00 3.847500e-01 0.000000e+00
2.359500e+00 3.847500e-01 0.000000e+00
2.541000e+00 3.847500e-01 0.000000e+00
2.722500e+00 3.847500e-01 0.000000e+00
2.904000e+00 3.847500e-01 0.000000e+00
2.178000e+00 5.130000e-01 0.000000e+00
2.359500e+00 5.130000e-01 0.000000e+00
2.541000e+00 5.130000e-01 0.000000e+00
2.722500e+00 5.130000e-01 0.000000e+00
2.904000e+00 5.130000e-01 0.000000e+00
2.904000e+00 0.000000e+00 0.000000e+00
3.085500e+00 0.000000e+00 0.000000e+00
3.267000e+00 0.000000e+00 0.000000e+00
3.448500e+00 0.000000e+00 0.000000e+00
3.630000e+00 0.000000e+00 0.000000e+00
2.904000e+00 1.282500e-01 0.000000e+00
3.085500e+00 1.282500e-01 0.000000e+00
3.267000e+00 1.282500e-01 0.000000e+00
3.448500e+00 1.282500e-01 0.000000e+00
3.630000e+00 1.282500e-01 0.000000e+00
2.904000e+00 2.565000e-01 0.000000e+00
3.085500e+00 2.565000e-01 0.000000e+00
3.267000e+00 2.565000e-01 0.000000e+00
3.448500e+00 2.565000e-01 0.000000e+00
3.630000e+00 2.565000e-01 0.000000e+00
2.904000e+00 3.847500e-01 0.000000e+00
3.085500e+00 3.847500e-01 0.000000e+00
3.267000e+00 3.847500e-01 0.000000e+00
3.448500e+00 3.847500e-01 0.000000e+00
3.630000e+00 3.847500e-01 0.000000e+00
2.904000e+00 5.130000e-01 0.000000e+00
[...]
<PointData>
<DataArray type="Float32" Name="V1" format="ascii">
0.000000e+00
0.000000e+00
0.000000e+00
0.000000e+00
0.000000e+00
1.264110e-02
1.103810e-02
9.663290e-03
8.516710e-03
7.598350e-03
2.028400e-02
1.823230e-02
1.641130e-02
1.482100e-02
1.346140e-02
2.292870e-02
2.158260e-02
2.024400e-02
1.891290e-02
1.758930e-02
2.057510e-02
2.108900e-02
2.116140e-02
2.079240e-02
1.998180e-02
0.000000e+00
0.000000e+00
0.000000e+00
0.000000e+00
0.000000e+00
7.598350e-03
6.570520e-03
5.801800e-03
5.292190e-03
5.041690e-03
1.346140e-02
1.193570e-02
1.075560e-02
9.921010e-03
9.432060e-03
1.758930e-02
1.609550e-02
1.486130e-02
1.388640e-02
1.317110e-02
1.998180e-02
1.905000e-02
1.811890e-02
1.718850e-02
1.625880e-02
0.000000e+00
0.000000e+00
0.000000e+00
0.000000e+00
0.000000e+00
5.041690e-03
4.848740e-03
4.704410e-03
4.608690e-03
4.561580e-03
9.432060e-03
9.057620e-03
8.744090e-03
8.491470e-03
8.299760e-03
1.317110e-02
1.262660e-02
1.211900e-02
1.164830e-02
1.121450e-02
1.625880e-02
1.555580e-02
1.482930e-02
1.407930e-02
1.330590e-02
0.000000e+00
0.000000e+00
0.000000e+00
0.000000e+00
0.000000e+00
4.561580e-03
3.669820e-03
3.815460e-03
4.998510e-03
7.218960e-03
8.299760e-03
6.509020e-03
6.533740e-03
8.373920e-03
1.202960e-02
1.121450e-02
8.517600e-03
8.154830e-03
1.012620e-02
1.443180e-02
1.330590e-02
9.695560e-03
8.678740e-03
1.025540e-02
1.442560e-02
0.000000e+00
0.000000e+00
0.000000e+00
0.000000e+00
0.000000e+00
7.218960e-03
5.644550e-03
1.667730e-03
-4.711500e-03
-1.349310e-02
1.202960e-02
7.976060e-03
5.731060e-04
-1.017930e-02
-2.428110e-02
1.443180e-02
6.994530e-03
-3.283860e-03
-1.640340e-02
-3.236400e-02
1.442560e-02
2.699950e-03
-9.903170e-03
-2.338370e-02
-3.774170e-02
0.000000e+00
0.000000e+00
0.000000e+00
0.000000e+00
0.000000e+00
-1.349310e-02
-1.435510e-02
-1.536070e-02
-1.650990e-02
-1.780260e-02
-2.428110e-02
-2.457490e-02
-2.542780e-02
-2.683970e-02
-2.881080e-02
-3.236400e-02
-3.065930e-02
-3.020120e-02
-3.098960e-02
-3.302460e-02
-3.774170e-02
-3.260840e-02
-2.968100e-02
-2.895960e-02
-3.044400e-02
0.000000e+00
0.000000e+00
0.000000e+00
0.000000e+00
0.000000e+00
-1.780260e-02
-1.702210e-02
-1.501750e-02
-1.178860e-02
-7.335610e-03
-2.881080e-02
-2.722820e-02
-2.380150e-02
-1.853050e-02
-1.141540e-02
-3.302460e-02
-3.061830e-02
-2.635200e-02
-2.022570e-02
-1.223940e-02
-3.044400e-02
-2.719240e-02
-2.266910e-02
-1.687420e-02
-9.807540e-03
0.000000e+00
0.000000e+00
0.000000e+00
0.000000e+00
0.000000e+00
-7.335610e-03
-4.529550e-03
-2.082150e-03
6.603070e-06
1.736700e-03
-1.141540e-02
-6.822860e-03
-2.825330e-03
5.771790e-04
3.384670e-03
-1.223940e-02
-6.879920e-03
-2.229560e-03
1.711730e-03
4.943930e-03
-9.807540e-03
-4.700750e-03
-2.948220e-04
3.410250e-03
6.414460e-03
0.000000e+00
0.000000e+00
0.000000e+00
0.000000e+00
0.000000e+00
1.736700e-03
3.630020e-03
5.115660e-03
6.193640e-03
6.863960e-03
3.384670e-03
6.489190e-03
8.945060e-03
1.075230e-02
1.191090e-02
4.943930e-03
8.577520e-03
1.148820e-02
1.367590e-02
1.514070e-02
6.414460e-03
9.895010e-03
1.274500e-02
1.496450e-02
1.655350e-02
0.000000e+00
0.000000e+00
0.000000e+00
0.000000e+00
0.000000e+00
6.863960e-03
7.471010e-03
8.104070e-03
8.763120e-03
9.448170e-03
1.191090e-02
1.301110e-02
1.411300e-02
1.521640e-02
1.632150e-02
1.514070e-02
1.662030e-02
1.802670e-02
1.936000e-02
2.062000e-02
1.655350e-02
1.829860e-02
1.984530e-02
2.119370e-02
2.234370e-02
2.057510e-02
2.108900e-02
2.116140e-02
2.079240e-02
1.998180e-02
2.078850e-02
2.097570e-02
2.099990e-02
2.086120e-02
2.055960e-02
2.103660e-02
2.096290e-02
2.091200e-02
2.088380e-02
2.087840e-02
2.131930e-02
2.105060e-02
2.089760e-02
2.086020e-02
2.093840e-02
2.163650e-02
2.123880e-02
2.095670e-02
2.079030e-02
2.073950e-02
1.998180e-02
1.905000e-02
1.811890e-02
1.718850e-02
1.625880e-02
2.055960e-02
2.010270e-02
1.954950e-02
1.890000e-02
1.815410e-02
2.087840e-02
2.075080e-02
2.048170e-02
2.007110e-02
1.951890e-02
2.093840e-02
2.099440e-02
2.091560e-02
2.070190e-02
2.035330e-02
2.073950e-02
2.083340e-02
2.085110e-02
2.079230e-02
2.065730e-02
1.625880e-02
1.555580e-02
1.482930e-02
1.407930e-02
1.330590e-02
1.815410e-02
1.739180e-02
1.655610e-02
1.564710e-02
1.466460e-02
1.951890e-02
1.869550e-02
1.780690e-02
1.685330e-02
1.583460e-02
2.035330e-02
1.946680e-02
1.858170e-02
1.769810e-02
1.681580e-02
2.065730e-02
1.970580e-02
1.888050e-02
1.818130e-02
1.760830e-02
1.330590e-02
9.695560e-03
8.678740e-03
1.025540e-02
1.442560e-02
1.466460e-02
1.056220e-02
9.065750e-03
1.017540e-02
1.389100e-02
1.583460e-02
1.133640e-02
9.476410e-03
1.025470e-02
1.367120e-02
1.681580e-02
1.201820e-02
9.910720e-03
1.049340e-02
1.376610e-02
1.760830e-02
1.260770e-02
1.036870e-02
1.089140e-02
1.417580e-02
1.442560e-02
2.699950e-03
-9.903170e-03
-2.338370e-02
-3.774170e-02
1.389100e-02
-2.972620e-04
-1.364180e-02
-2.614250e-02
-3.779950e-02
1.367120e-02
-1.554790e-03
-1.484310e-02
-2.619390e-02
-3.560700e-02
1.376610e-02
-1.072620e-03
-1.350730e-02
-2.353790e-02
-3.116440e-02
1.417580e-02
1.149230e-03
-9.634190e-03
-1.817450e-02
-2.447160e-02
-3.774170e-02
-3.260840e-02
-2.968100e-02
-2.895960e-02
-3.044400e-02
-3.779950e-02
-3.114350e-02
-2.698020e-02
-2.530940e-02
-2.613110e-02
-3.560700e-02
-2.810790e-02
-2.307630e-02
-2.051230e-02
-2.041580e-02
-3.116440e-02
-2.350140e-02
-1.796930e-02
-1.456830e-02
-1.329830e-02
-2.447160e-02
-1.732400e-02
-1.165930e-02
-7.477510e-03
-4.778520e-03
-3.044400e-02
-2.719240e-02
-2.266910e-02
-1.687420e-02
-9.807540e-03
-2.613110e-02
-2.482440e-02
-2.144870e-02
-1.600390e-02
-8.490020e-03
-2.041580e-02
-2.059480e-02
-1.828420e-02
-1.348400e-02
-6.194190e-03
-1.329830e-02
-1.450360e-02
-1.317560e-02
-9.314420e-03
-2.920060e-03
-4.778520e-03
-6.550720e-03
-6.122960e-03
-3.495270e-03
1.332380e-03
-9.807540e-03
-4.700750e-03
-2.948220e-04
3.410250e-03
6.414460e-03
-8.490020e-03
-3.200380e-03
1.253970e-03
4.873030e-03
7.656800e-03
-6.194190e-03
-9.298230e-04
3.394200e-03
6.777870e-03
9.221200e-03
-2.920060e-03
2.110910e-03
6.125860e-03
9.124770e-03
1.110760e-02
1.332380e-03
5.921840e-03
9.448950e-03
1.191370e-02
1.331610e-02
6.414460e-03
9.895010e-03
1.274500e-02
1.496450e-02
1.655350e-02
7.656800e-03
1.104260e-02
1.378680e-02
1.588940e-02
1.735040e-02
9.221200e-03
1.233870e-02
1.484380e-02
1.673640e-02
1.801650e-02
1.110760e-02
1.378340e-02
1.591600e-02
1.750550e-02
1.855190e-02
1.331610e-02
1.537660e-02
1.700350e-02
1.819680e-02
1.895650e-02
1.655350e-02
1.829860e-02
1.984530e-02
2.119370e-02
2.234370e-02
1.735040e-02
1.915750e-02
2.074190e-02
2.210360e-02
2.324270e-02
1.801650e-02
1.983840e-02
2.141060e-02
2.273320e-02
2.380610e-02
1.855190e-02
2.034130e-02
2.185140e-02
2.308230e-02
2.403390e-02
1.895650e-02
2.066610e-02
2.206430e-02
2.315100e-02
2.392620e-02
2.163650e-02
2.123880e-02
2.095670e-02
2.079030e-02
2.073950e-02
2.197900e-02
2.159320e-02
2.130540e-02
2.111570e-02
2.102400e-02
2.233590e-02
2.198740e-02
2.171480e-02
2.151830e-02
2.139770e-02
2.270730e-02
2.242130e-02
2.218490e-02
2.199800e-02
2.186060e-02
2.309330e-02
2.289510e-02
2.271560e-02
2.255480e-02
2.241260e-02
2.073950e-02
2.083340e-02
2.085110e-02
2.079230e-02
2.065730e-02
2.102400e-02
2.098120e-02
2.094880e-02
2.092700e-02
2.091560e-02
2.139770e-02
2.123760e-02
2.115460e-02
2.114880e-02
2.122010e-02
2.186060e-02
2.160270e-02
2.146840e-02
2.145780e-02
2.157080e-02
2.241260e-02
2.207650e-02
2.189030e-02
2.185400e-02
2.196760e-02
2.065730e-02
1.970580e-02
1.888050e-02
1.818130e-02
1.760830e-02
2.091560e-02
1.977470e-02
1.900500e-02
1.860650e-02
1.857920e-02
2.122010e-02
1.993350e-02
1.922090e-02
1.908220e-02
1.951760e-02
2.157080e-02
2.018230e-02
1.952820e-02
1.960860e-02
2.042340e-02
2.196760e-02
2.052100e-02
1.992700e-02
2.018550e-02
2.129670e-02
1.760830e-02
1.260770e-02
1.036870e-02
1.089140e-02
1.417580e-02
1.857920e-02
1.369430e-02
1.152910e-02
1.208350e-02
1.535760e-02
1.951760e-02
1.500100e-02
1.304580e-02
1.365220e-02
1.682000e-02
2.042340e-02
1.652750e-02
1.491880e-02
1.559730e-02
1.856290e-02
2.129670e-02
1.827410e-02
1.714820e-02
1.791890e-02
2.058640e-02
1.417580e-02
1.149230e-03
-9.634190e-03
-1.817450e-02
-2.447160e-02
1.535760e-02
6.764890e-03
-1.095510e-03
-8.223570e-03
-1.461930e-02
1.682000e-02
1.267730e-02
7.758450e-03
2.063450e-03
-4.407690e-03
1.856290e-02
1.888650e-02
1.692770e-02
1.268660e-02
6.163170e-03
2.058640e-02
2.539240e-02
2.641220e-02
2.364590e-02
1.709330e-02
-2.447160e-02
-1.732400e-02
-1.165930e-02
-7.477510e-03
-4.778520e-03
-1.461930e-02
-1.006630e-02
-5.757290e-03
-1.692230e-03
2.128860e-03
-4.407690e-03
-1.966230e-03
1.363050e-03
5.580150e-03
1.068510e-02
6.163170e-03
6.976160e-03
9.701650e-03
1.433960e-02
2.089010e-02
1.709330e-02
1.676090e-02
1.925850e-02
2.458620e-02
3.274400e-02
-4.778520e-03
-6.550720e-03
-6.122960e-03
-3.495270e-03
1.332380e-03
2.128860e-03
6.600330e-04
7.151070e-04
2.294080e-03
5.396960e-03
1.068510e-02
9.223410e-03
8.572100e-03
8.731130e-03
9.700510e-03
2.089010e-02
1.913940e-02
1.744800e-02
1.581590e-02
1.424300e-02
3.274400e-02
3.040810e-02
2.734280e-02
2.354830e-02
1.902450e-02
1.332380e-03
5.921840e-03
9.448950e-03
1.191370e-02
1.331610e-02
5.396960e-03
9.772140e-03
1.297970e-02
1.501950e-02
1.589170e-02
9.700510e-03
1.362280e-02
1.637280e-02
1.795030e-02
1.835540e-02
1.424300e-02
1.747390e-02
1.962830e-02
2.070600e-02
2.070720e-02
1.902450e-02
2.132540e-02
2.274620e-02
2.328670e-02
2.294700e-02
1.331610e-02
1.537660e-02
1.700350e-02
1.819680e-02
1.895650e-02
1.589170e-02
1.710530e-02
1.810150e-02
1.888030e-02
1.944180e-02
1.835540e-02
1.879800e-02
1.921720e-02
1.961310e-02
1.998560e-02
2.070720e-02
2.045460e-02
2.035060e-02
2.039500e-02
2.058780e-02
2.294700e-02
2.207520e-02
2.150160e-02
2.122610e-02
2.124860e-02
1.895650e-02
2.066610e-02
2.206430e-02
2.315100e-02
2.392620e-02
1.944180e-02
2.118700e-02
2.252520e-02
2.345650e-02
2.398080e-02
1.998560e-02
2.172900e-02
2.298510e-02
2.375390e-02
2.403550e-02
2.058780e-02
2.229220e-02
2.344400e-02
2.404340e-02
2.409030e-02
2.124860e-02
2.287650e-02
2.390190e-02
2.432480e-02
2.414530e-02
2.309330e-02
2.289510e-02
2.271560e-02
2.255480e-02
2.241260e-02
2.348320e-02
2.331940e-02
2.317400e-02
2.304700e-02
2.293850e-02
2.386930e-02
2.373180e-02
2.361530e-02
2.351960e-02
2.344500e-02
2.425160e-02
2.413240e-02
2.403940e-02
2.397260e-02
2.393190e-02
2.463000e-02
2.452110e-02
2.444640e-02
2.440580e-02
2.439940e-02
2.241260e-02
2.207650e-02
2.189030e-02
2.185400e-02
2.196760e-02
2.293850e-02
2.259110e-02
2.239170e-02
2.234030e-02
2.243690e-02
2.344500e-02
2.310040e-02
2.290010e-02
2.284410e-02
2.293240e-02
2.393190e-02
2.360440e-02
2.341550e-02
2.336540e-02
2.345400e-02
2.439940e-02
2.410310e-02
2.393810e-02
2.390430e-02
2.400180e-02
2.196760e-02
2.052100e-02
1.992700e-02
2.018550e-02
2.129670e-02
2.243690e-02
2.116850e-02
2.065100e-02
2.088430e-02
2.186850e-02
2.293240e-02
2.187760e-02
2.145380e-02
2.166100e-02
2.249930e-02
2.345400e-02
2.264820e-02
2.233540e-02
2.251570e-02
2.318910e-02
2.400180e-02
2.348030e-02
2.329580e-02
2.344840e-02
2.393800e-02
2.129670e-02
1.827410e-02
1.714820e-02
1.791890e-02
2.058640e-02
2.186850e-02
1.983260e-02
1.919250e-02
1.994840e-02
2.210010e-02
2.249930e-02
2.125130e-02
2.099450e-02
2.172900e-02
2.345480e-02
2.318910e-02
2.253030e-02
2.255420e-02
2.326090e-02
2.465030e-02
2.393800e-02
2.366950e-02
2.387150e-02
2.454390e-02
2.568680e-02
2.058640e-02
2.539240e-02
2.641220e-02
2.364590e-02
1.709330e-02
2.210010e-02
2.964810e-02
3.363440e-02
3.405910e-02
3.092200e-02
2.345480e-02
3.229290e-02
3.817730e-02
4.110790e-02
4.108480e-02
2.465030e-02
3.332670e-02
4.004080e-02
4.479250e-02
4.758180e-02
2.568680e-02
3.274950e-02
3.922490e-02
4.511270e-02
5.041300e-02
1.709330e-02
1.676090e-02
1.925850e-02
2.458620e-02
3.274400e-02
3.092200e-02
3.107720e-02
3.338860e-02
3.785610e-02
4.447980e-02
4.108480e-02
4.206340e-02
4.434990e-02
4.794420e-02
5.284640e-02
4.758180e-02
4.971960e-02
5.214250e-02
5.485060e-02
5.784380e-02
5.041300e-02
5.404560e-02
5.676640e-02
5.857520e-02
5.947220e-02
3.274400e-02
3.040810e-02
2.734280e-02
2.354830e-02
1.902450e-02
4.447980e-02
3.960530e-02
3.440470e-02
2.887800e-02
2.302510e-02
5.284640e-02
4.610980e-02
3.947970e-02
3.295610e-02
2.653880e-02
5.784380e-02
4.992170e-02
4.256790e-02
3.578270e-02
2.956580e-02
5.947220e-02
5.104080e-02
4.366930e-02
3.735770e-02
3.210610e-02
1.902450e-02
2.132540e-02
2.274620e-02
2.328670e-02
2.294700e-02
2.302510e-02
2.453650e-02
2.533390e-02
2.541720e-02
2.478640e-02
2.653880e-02
2.737250e-02
2.762030e-02
2.728230e-02
2.635840e-02
2.956580e-02
2.983340e-02
2.960540e-02
2.888190e-02
2.766290e-02
3.210610e-02
3.191920e-02
3.128920e-02
3.021620e-02
2.870000e-02
2.294700e-02
2.207520e-02
2.150160e-02
2.122610e-02
2.124860e-02
2.478640e-02
2.356540e-02
2.271240e-02
2.222730e-02
2.211010e-02
2.635840e-02
2.487960e-02
2.381970e-02
2.317880e-02
2.295680e-02
2.766290e-02
2.601760e-02
2.482350e-02
2.408050e-02
2.378870e-02
2.870000e-02
2.697960e-02
2.572380e-02
2.493250e-02
2.460580e-02
2.124860e-02
2.287650e-02
2.390190e-02
2.432480e-02
2.414530e-02
2.211010e-02
2.344560e-02
2.426360e-02
2.456420e-02
2.434730e-02
2.295680e-02
2.400050e-02
2.461460e-02
2.479890e-02
2.455350e-02
2.378870e-02
2.454150e-02
2.495490e-02
2.502890e-02
2.476360e-02
2.460580e-02
2.506830e-02
2.528450e-02
2.525430e-02
2.497780e-02
2.463000e-02
2.452110e-02
2.444640e-02
2.440580e-02
2.439940e-02
2.499690e-02
2.491180e-02
2.485920e-02
2.483920e-02
2.485170e-02
2.534870e-02
2.529050e-02
2.526170e-02
2.526230e-02
2.529220e-02
2.568540e-02
2.565740e-02
2.565400e-02
2.567520e-02
2.572090e-02
2.600690e-02
2.601240e-02
2.603610e-02
2.607780e-02
2.613780e-02
2.439940e-02
2.410310e-02
2.393810e-02
2.390430e-02
2.400180e-02
2.485170e-02
2.460260e-02
2.446990e-02
2.445360e-02
2.455390e-02
2.529220e-02
2.509080e-02
2.499160e-02
2.499440e-02
2.509920e-02
2.572090e-02
2.556790e-02
2.550310e-02
2.552640e-02
2.563790e-02
2.613780e-02
2.603390e-02
2.600460e-02
2.604990e-02
2.616980e-02
2.400180e-02
2.348030e-02
2.329580e-02
2.344840e-02
2.393800e-02
2.455390e-02
2.421780e-02
2.415340e-02
2.436050e-02
2.483920e-02
2.509920e-02
2.490920e-02
2.494210e-02
2.519800e-02
2.567690e-02
2.563790e-02
2.555430e-02
2.566200e-02
2.596090e-02
2.645100e-02
2.616980e-02
2.615330e-02
2.631300e-02
2.664910e-02
2.716150e-02
2.393800e-02
2.366950e-02
2.387150e-02
2.454390e-02
2.568680e-02
2.483920e-02
2.485910e-02
2.524880e-02
2.600830e-02
2.713770e-02
2.567690e-02
2.597670e-02
2.654970e-02
2.739580e-02
2.851500e-02
2.645100e-02
2.702250e-02
2.777420e-02
2.870630e-02
2.981870e-02
2.716150e-02
2.799630e-02
2.892240e-02
2.993990e-02
3.104870e-02
2.568680e-02
3.274950e-02
3.922490e-02
4.511270e-02
5.041300e-02
2.713770e-02
3.289460e-02
3.841830e-02
4.370880e-02
4.876610e-02
2.851500e-02
3.317240e-02
3.781640e-02
4.244720e-02
4.706470e-02
2.981870e-02
3.358290e-02
3.741940e-02
4.132800e-02
4.530880e-02
3.104870e-02
3.412620e-02
3.722700e-02
4.035110e-02
4.349840e-02
5.041300e-02
5.404560e-02
5.676640e-02
5.857520e-02
5.947220e-02
4.876610e-02
5.271660e-02
5.548890e-02
5.708320e-02
5.749940e-02
4.706470e-02
5.095350e-02
5.358030e-02
5.494510e-02
5.504790e-02
4.530880e-02
4.875640e-02
5.104040e-02
5.216090e-02
5.211780e-02
4.349840e-02
4.612530e-02
4.786940e-02
4.873060e-02
4.870900e-02
5.947220e-02
5.104080e-02
4.366930e-02
3.735770e-02
3.210610e-02
5.749940e-02
5.045650e-02
4.424690e-02
3.887050e-02
3.432740e-02
5.504790e-02
4.941730e-02
4.436900e-02
3.990310e-02
3.601950e-02
5.211780e-02
4.792300e-02
4.403560e-02
4.045540e-02
3.718260e-02
4.870900e-02
4.597370e-02
4.324650e-02
4.052740e-02
3.781640e-02
3.210610e-02
3.191920e-02
3.128920e-02
3.021620e-02
2.870000e-02
3.432740e-02
3.338170e-02
3.222620e-02
3.086100e-02
2.928600e-02
3.601950e-02
3.446490e-02
3.290350e-02
3.133540e-02
2.976050e-02
3.718260e-02
3.516880e-02
3.332110e-02
3.163940e-02
3.012360e-02
3.781640e-02
3.549350e-02
3.347900e-02
3.177300e-02
3.037540e-02
2.870000e-02
2.697960e-02
2.572380e-02
2.493250e-02
2.460580e-02
2.928600e-02
2.778750e-02
2.664810e-02
2.586790e-02
2.544670e-02
2.976050e-02
2.847580e-02
2.745250e-02
2.669060e-02
2.619010e-02
3.012360e-02
2.904440e-02
2.813680e-02
2.740070e-02
2.683620e-02
3.037540e-02
2.949340e-02
2.870100e-02
2.799820e-02
2.738490e-02
2.460580e-02
2.506830e-02
2.528450e-02
2.525430e-02
2.497780e-02
2.544670e-02
2.557460e-02
2.557990e-02
2.546240e-02
2.522220e-02
2.619010e-02
2.602730e-02
2.585200e-02
2.566400e-02
2.546360e-02
2.683620e-02
2.642640e-02
2.610070e-02
2.585930e-02
2.570210e-02
2.738490e-02
2.677180e-02
2.632620e-02
2.604820e-02
2.593760e-02
2.600690e-02
2.601240e-02
2.603610e-02
2.607780e-02
2.613780e-02
2.630990e-02
2.634670e-02
2.639730e-02
2.646170e-02
2.653990e-02
2.659390e-02
2.666020e-02
2.673610e-02
2.682160e-02
2.691670e-02
2.685910e-02
2.695310e-02
2.705270e-02
2.715770e-02
2.726820e-02
2.710540e-02
2.722540e-02
2.734690e-02
2.746990e-02
2.759460e-02
2.613780e-02
2.603390e-02
2.600460e-02
2.604990e-02
2.616980e-02
2.653990e-02
2.647060e-02
2.647040e-02
2.653920e-02
2.667700e-02
2.691670e-02
2.687880e-02
2.690410e-02
2.699250e-02
2.714410e-02
2.726820e-02
2.725840e-02
2.730570e-02
2.740990e-02
2.757120e-02
2.759460e-02
2.760950e-02
2.767510e-02
2.779130e-02
2.795820e-02
2.616980e-02
2.615330e-02
2.631300e-02
2.664910e-02
2.716150e-02
2.667700e-02
2.672380e-02
2.692500e-02
2.728060e-02
2.779040e-02
2.714410e-02
2.725020e-02
2.748730e-02
2.785540e-02
2.835460e-02
2.757120e-02
2.773240e-02
2.799990e-02
2.837380e-02
2.885400e-02
2.795820e-02
2.817030e-02
2.846280e-02
2.883560e-02
2.928870e-02
2.716150e-02
2.799630e-02
2.892240e-02
2.993990e-02
3.104870e-02
2.779040e-02
2.868360e-02
2.966800e-02
3.074360e-02
3.191040e-02
2.835460e-02
2.925080e-02
3.023970e-02
3.132110e-02
3.249520e-02
2.885400e-02
2.969780e-02
3.063730e-02
3.167240e-02
3.280310e-02
2.928870e-02
3.002460e-02
3.086090e-02
3.179740e-02
3.283430e-02
3.104870e-02
3.412620e-02
3.722700e-02
4.035110e-02
4.349840e-02
3.191040e-02
3.452280e-02
3.712400e-02
3.971400e-02
4.229280e-02
3.249520e-02
3.470790e-02
3.688010e-02
3.901160e-02
4.110250e-02
3.280310e-02
3.468170e-02
3.649530e-02
3.824380e-02
3.992730e-02
3.283430e-02
3.444410e-02
3.596960e-02
3.741070e-02
3.876740e-02
4.349840e-02
4.612530e-02
4.786940e-02
4.873060e-02
4.870900e-02
4.229280e-02
4.437450e-02
4.573750e-02
4.638180e-02
4.630730e-02
4.110250e-02
4.274950e-02
4.381750e-02
4.430650e-02
4.421640e-02
3.992730e-02
4.125030e-02
4.210950e-02
4.250480e-02
4.243630e-02
3.876740e-02
3.987690e-02
4.061330e-02
4.097660e-02
4.096680e-02
4.870900e-02
4.597370e-02
4.324650e-02
4.052740e-02
3.781640e-02
4.630730e-02
4.413440e-02
4.194960e-02
3.975290e-02
3.754430e-02
4.421640e-02
4.251700e-02
4.078380e-02
3.901700e-02
3.721640e-02
4.243630e-02
4.112140e-02
3.974920e-02
3.831960e-02
3.683270e-02
4.096680e-02
3.994760e-02
3.884560e-02
3.766080e-02
3.639320e-02
3.781640e-02
3.549350e-02
3.347900e-02
3.177300e-02
3.037540e-02
3.754430e-02
3.548470e-02
3.366860e-02
3.209600e-02
3.076680e-02
3.721640e-02
3.540210e-02
3.377570e-02
3.233710e-02
3.108650e-02
3.683270e-02
3.524560e-02
3.380020e-02
3.249650e-02
3.133460e-02
3.639320e-02
3.501530e-02
3.374220e-02
3.257410e-02
3.151090e-02
3.037540e-02
2.949340e-02
2.870100e-02
2.799820e-02
2.738490e-02
3.076680e-02
2.987960e-02
2.907920e-02
2.836550e-02
2.773860e-02
3.108650e-02
3.019450e-02
2.938840e-02
2.866830e-02
2.803400e-02
3.133460e-02
3.043820e-02
2.962880e-02
2.890640e-02
2.827120e-02
3.151090e-02
3.061050e-02
2.980020e-02
2.908010e-02
2.845000e-02
2.738490e-02
2.677180e-02
2.632620e-02
2.604820e-02
2.593760e-02
2.773860e-02
2.712160e-02
2.664720e-02
2.631530e-02
2.612590e-02
2.803400e-02
2.742740e-02
2.693630e-02
2.656050e-02
2.630010e-02
2.827120e-02
2.768920e-02
2.719340e-02
2.678370e-02
2.646030e-02
2.845000e-02
2.790690e-02
2.741850e-02
2.698500e-02
2.660630e-02
2.710540e-02
2.722540e-02
2.734690e-02
2.746990e-02
2.759460e-02
2.733260e-02
2.746840e-02
2.760490e-02
2.774220e-02
2.788030e-02
2.754220e-02
2.769130e-02
2.784030e-02
2.798910e-02
2.813780e-02
2.773410e-02
2.789430e-02
2.805320e-02
2.821080e-02
2.836710e-02
2.790840e-02