<?xml version="1.0"?>
<VTKFile type="UnstructuredGrid" version="0.1" byte_order="LittleEndian" compressor="vtkZLibDataCompressor">
<UnstructuredGrid>
<Piece NumberOfPoints="2500" NumberOfCells="1600">
<Points>
<DataArray type="Float32" NumberOfComponents="3" format="ascii">
-3.630000e+00 0.000000e+00 0.000000e+00
-3.448500e+00 0.000000e+00 0.000000e+00
-3.267000e+00 0.000000e+00 0.000000e+00
-3.085500e+00 0.000000e+00 0.000000e+00
-2.904000e+00 0.000000e+00 0.000000e+00
-3.630000e+00 1.282500e-01 0.000000e+00
-3.448500e+00 1.282500e-01 0.000000e+00
-3.267000e+00 1.282500e-01 0.000000e+00
-3.085500e+00 1.282500e-01 0.000000e+00
-2.904000e+00 1.282500e-01 0.000000e+00
-3.630000e+00 2.565000e-01 0.000000e+00
-3.448500e+00 2.565000e-01 0.000000e+00
-3.267000e+00 2.565000e-01 0.000000e+00
-3.085500e+00 2.565000e-01 0.000000e+00
-2.904000e+00 2.565000e-01 0.000000e+00
-3.630000e+00 3.847500e-01 0.000000e+00
-3.448500e+00 3.847500e-01 0.000000e+00
-3.267000e+00 3.847500e-01 0.000000e+00
-3.085500e+00 3.847500e-01 0.000000e+00
-2.904000e+00 3.847500e-01 0.000000e+00
-3.630000e+00 5.130000e-01 0.000000e+00
-3.448500e+00 5.130000e-01 0.000000e+00
-3.267000e+00 5.130000e-01 0.000000e+00
-3.085500e+00 5.130000e-01 0.000000e+00
-2.904000e+00 5.130000e-01 0.000000e+00
-2.904000e+00 0.000000e+00 0.000000e+00
-2.722500e+00 0.000000e+00 0.000000e+00
-2.541000e+00 0.000000e+00 0.000000e+00
-2.359500e+00 0.000000e+00 0.000000e+00
-2.178000e+00 0.000000e+00 0.000000e+00
-2.904000e+00 1.282500e-01 0.000000e+00
-2.722500e+00 1.282500e-01 0.000000e+00
-2.541000e+00 1.282500e-01 0.000000e+00
-2.359500e+00 1.282500e-01 0.000000e+00
-2.178000e+00 1.282500e-01 0.000000e+00
-2.904000e+00 2.565000e-01 0.000000e+00
-2.722500e+00 2.565000e-01 0.000000e+00
-2.541000e+00 2.565000e-01 0.000000e+00
-2.359500e+00 2.565000e-01 0.000000e+00
-2.178000e+00 2.565000e-01 0.000000e+00
-2.904000e+00 3.847500e-01 0.000000e+00
-2.722500e+00 3.847500e-01 0.000000e+00
-2.541000e+00 3.847500e-01 0.000000e+00
-2.359500e+00 3.847500e-01 0.000000e+00
-2.178000e+00 3.847500e-01 0.000000e+00
-2.904000e+00 5.130000e-01 0.000000e+00
-2.722500e+00 5.130000e-01 0.000000e+00
-2.541000e+00 5.130000e-01 0.000000e+00
-2.359500e+00 5.130000e-01 0.000000e+00
-2.178000e+00 5.130000e-01 0.000000e+00
-2.178000e+00 0.000000e+00 0.000000e+00
-1.996500e+00 0.000000e+00 0.000000e+00
-1.815000e+00 0.000000e+00 0.000000e+00
-1.633500e+00 0.000000e+00 0.000000e+00
-1.452000e+00 0.000000e+00 0.000000e+00
-2.178000e+00 1.282500e-01 0.000000e+00
-1.996500e+00 1.282500e-01 0.000000e+00
-1.815000e+00 1.282500e-01 0.000000e+00
-1.633500e+00 1.282500e-01 0.000000e+00
-1.452000e+00 1.282500e-01 0.000000e+00
-2.178000e+00 2.565000e-01 0.000000e+00
-1.996500e+00 2.565000e-01 0.000000e+00
-1.815000e+00 2.565000e-01 0.000000e+00
-1.633500e+00 2.565000e-01 0.000000e+00
-1.452000e+00 2.565000e-01 0.000000e+00
-2.178000e+00 3.847500e-01 0.000000e+00
-1.996500e+00 3.847500e-01 0.000000e+00
-1.815000e+00 3.847500e-01 0.000000e+00
-1.633500e+00 3.847500e-01 0.000000e+00
-1.452000e+00 3.847500e-01 0.000000e+00
-2.178000e+00 5.130000e-01 0.000000e+00
-1.996500e+00 5.130000e-01 0.000000e+00
-1.815000e+00 5.130000e-01 0.000000e+00
-1.633500e+00 5.130000e-01 0.000000e+00
-1.452000e+00 5.130000e-01 0.000000e+00
-1.452000e+00 0.000000e+00 0.000000e+00
-1.270500e+00 0.000000e+00 0.000000e+00
-1.089000e+00 0.000000e+00 0.000000e+00
-9.075000e-01 0.000000e+00 0.000000e+00
-7.260000e-01 0.000000e+00 0.000000e+00
-1.452000e+00 1.282500e-01 0.000000e+00
-1.270500e+00 1.282500e-01 0.000000e+00
-1.089000e+00 1.282500e-01 0.000000e+00
-9.075000e-01 1.282500e-01 0.000000e+00
-7.260000e-01 1.282500e-01 0.000000e+00
-1.452000e+00 2.565000e-01 0.000000e+00
-1.270500e+00 2.565000e-01 0.000000e+00
-1.089000e+00 2.565000e-01 0.000000e+00
-9.075000e-01 2.565000e-01 0.000000e+00
-7.260000e-01 2.565000e-01 0.000000e+00
-1.452000e+00 3.847500e-01 0.000000e+00
-1.270500e+00 3.847500e-01 0.000000e+00
-1.089000e+00 3.847500e-01 0.000000e+00
-9.075000e-01 3.847500e-01 0.000000e+00
-7.260000e-01 3.847500e-01 0.000000e+00
-1.452000e+00 5.130000e-01 0.000000e+00
-1.270500e+00 5.130000e-01 0.000000e+00
-1.089000e+00 5.130000e-01 0.000000e+00
-9.075000e-01 5.130000e-01 0.000000e+00
-7.260000e-01 5.130000e-01 0.000000e+00
-7.260000e-01 0.000000e+00 0.000000e+00
-5.445000e-01 0.000000e+00 0.000000e+00
-3.630000e-01 0.000000e+00 0.000000e+00
-1.815000e-01 0.000000e+00 0.000000e+00
0.000000e+00 0.000000e+00 0.000000e+00
-7.260000e-01 1.282500e-01 0.000000e+00
-5.445000e-01 1.282500e-01 0.000000e+00
-3.630000e-01 1.282500e-01 0.000000e+00
-1.815000e-01 1.282500e-01 0.000000e+00
0.000000e+00 1.282500e-01 0.000000e+00
-7.260000e-01 2.565000e-01 0.000000e+00
-5.445000e-01 2.565000e-01 0.000000e+00
-3.630000e-01 2.565000e-01 0.000000e+00
-1.815000e-01 2.565000e-01 0.000000e+00
0.000000e+00 2.565000e-01 0.000000e+00
-7.260000e-01 3.847500e-01 0.000000e+00
-5.445000e-01 3.847500e-01 0.000000e+00
-3.630000e-01 3.847500e-01 0.000000e+00
-1.815000e-01 3.847500e-01 0.000000e+00
0.000000e+00 3.847500e-01 0.000000e+00
-7.260000e-01 5.130000e-01 0.000000e+00
-5.445000e-01 5.130000e-01 0.000000e+00
-3.630000e-01 5.130000e-01 0.000000e+00
-1.815000e-01 5.130000e-01 0.000000e+00
0.000000e+00 5.130000e-01 0.000000e+00
0.000000e+00 0.000000e+00 0.000000e+00
1.815000e-01 0.000000e+00 0.000000e+00
3.630000e-01 0.000000e+00 0.000000e+00
5.445000e-01 0.000000e+00 0.000000e+00
7.260000e-01 0.000000e+00 0.000000e+00
0.000000e+00 1.282500e-01 0.000000e+00
1.815000e-01 1.282500e-01 0.000000e+00
3.630000e-01 1.282500e-01 0.000000e+00
5.445000e-01 1.282500e-01 0.000000e+00
7.260000e-01 1.282500e-01 0.000000e+00
0.000000e+00 2.565000e-01 0.000000e+00
1.815000e-01 2.565000e-01 0.000000e+00
3.630000e-01 2.565000e-01 0.000000e+00
5.445000e-01 2.565000e-01 0.000000e+00
7.260000e-01 2.565000e-01 0.000000e+00
0.000000e+00 3.847500e-01 0.000000e+00
1.815000e-01 3.847500e-01 0.000000e+00
3.630000e-01 3.847500e-01 0.000000e+00
5.445000e-01 3.847500e-01 0.000000e+00
7.260000e-01 3.847500e-01 0.000000e+00
0.000000e+00 5.130000e-01 0.000000e+00
1.815000e-01 5.130000e-01 0.000000e+00
3.630000e-01 5.130000e-01 0.000000e+00
5.445000e-01 5.130000e-01 0.000000e+00
7.260000e-01 5.130000e-01 0.000000e+00
7.260000e-01 0.000000e+00 0.000000e+00
9.075000e-01 0.000000e+00 0.000000e+00
1.089000e+00 0.000000e+00 0.000000e+00
1.270500e+00 0.000000e+00 0.000000e+00
1.452000e+00 0.000000e+00 0.000000e+00
7.260000e-01 1.282500e-01 0.000000e+00
9.075000e-01 1.282500e-01 0.000000e+00
1.089000e+00 1.282500e-01 0.000000e+00
1.270500e+00 1.282500e-01 0.000000e+00
1.452000e+00 1.282500e-01 0.000000e+00
7.260000e-01 2.565000e-01 0.000000e+00
9.075000e-01 2.565000e-01 0.000000e+00
1.089000e+00 2.565000e-01 0.000000e+00
1.270500e+00 2.565000e-01 0.000000e+00
1.452000e+00 2.565000e-01 0.000000e+00
7.260000e-01 3.847500e-01 0.000000e+00
9.075000e-01 3.847500e-01 0.000000e+00
1.089000e+00 3.847500e-01 0.000000e+00
1.270500e+00 3.847500e-01 0.000000e+00
1.452000e+00 3.847500e-01 0.000000e+00
7.260000e-01 5.130000e-01 0.000000e+00
9.075000e-01 5.130000e-01 0.000000e+00
1.089000e+00 5.130000e-01 0.000000e+00
1.270500e+00 5.130000e-01 0.000000e+00
1.452000e+00 5.130000e-01 0.000000e+00
1.452000e+00 0.000000e+00 0.000000e+00
1.633500e+00 0.000000e+00 0.000000e+00
1.815000e+00 0.000000e+00 0.000000e+00
1.996500e+00 0.000000e+00 0.000000e+00
2.178000e+00 0.000000e+00 0.000000e+00
1.452000e+00 1.282500e-01 0.000000e+00
1.633500e+00 1.282500e-01 0.000000e+00
1.815000e+00 1.282500e-01 0.000000e+00
1.996500e+00 1.282500e-01 0.000000e+00
2.178000e+00 1.282500e-01 0.000000e+00
1.452000e+00 2.565000e-01 0.000000e+00
1.633500e+00 2.565000e-01 0.000000e+00
1.815000e+00 2.565000e-01 0.000000e+00
1.996500e+00 2.565000e-01 0.000000e+00
2.178000e+00 2.565000e-01 0.000000e+00
1.452000e+00 3.847500e-01 0.000000e+00
1.633500e+00 3.847500e-01 0.000000e+00
1.815000e+00 3.847500e-01 0.000000e+00
1.996500e+00 3.847500e-01 0.000000e+00
2.178000e+00 3.847500e-01 0.000000e+00
1.452000e+00 5.130000e-01 0.000000e+00
1.633500e+00 5.130000e-01 0.000000e+00
1.815000e+00 5.130000e-01 0.000000e+00
1.996500e+00 5.130000e-01 0.000000e+00
2.178000e+00 5.130000e-01 0.000000e+00
2.178000e+00 0.000000e+00 0.000000e+00
2.359500e+00 0.000000e+00 0.000000e+00
2.541000e+00 0.000000e+00 0.000000e+00
2.722500e+00 0.000000e+00 0.000000e+00
2.904000e+00 0.000000e+00 0.000000e+00
2.178000e+00 1.282500e-01 0.000000e+00
2.359500e+00 1.282500e-01 0.000000e+00
2.541000e+00 1.282500e-01 0.000000e+00
2.722500e+00 1.282500e-01 0.000000e+00
2.904000e+00 1.282500e-01 0.000000e+00
2.178000e+00 2.565000e-01 0.000000e+00
2.359500e+00 2.565000e-01 0.000000e+00
2.541000e+00 2.565000e-01 0.000000e+00
2.722500e+00 2.565000e-01 0.000000e+00
2.904000e+00 2.565000e-01 0.000000e+00
2.178000e+00 3.847500e-01 0.000000e+00
2.359500e+00 3.847500e-01 0.000000e+00
2.541000e+00 3.847500e-01 0.000000e+00
2.722500e+00 3.847500e-01 0.000000e+00
2.904000e+00 3.847500e-01 0.000000e+00
2.178000e+00 5.130000e-01 0.000000e+00
2.359500e+00 5.130000e-01 0.000000e+00
2.541000e+00 5.130000e-01 0.000000e+00
2.722500e+00 5.130000e-01 0.000000e+00
2.904000e+00 5.130000e-01 0.000000e+00
2.904000e+00 0.000000e+00 0.000000e+00
3.085500e+00 0.000000e+00 0.000000e+00
3.267000e+00 0.000000e+00 0.000000e+00
3.448500e+00 0.000000e+00 0.000000e+00
3.630000e+00 0.000000e+00 0.000000e+00
2.904000e+00 1.282500e-01 0.000000e+00
3.085500e+00 1.282500e-01 0.000000e+00
3.267000e+00 1.282500e-01 0.000000e+00
3.448500e+00 1.282500e-01 0.000000e+00
3.630000e+00 1.282500e-01 0.000000e+00
2.904000e+00 2.565000e-01 0.000000e+00
3.085500e+00 2.565000e-01 0.000000e+00
3.267000e+00 2.565000e-01 0.000000e+00
3.448500e+00 2.565000e-01 0.000000e+00
3.630000e+00 2.565000e-01 0.000000e+00
2.904000e+00 3.847500e-01 0.000000e+00
3.085500e+00 3.847500e-01 0.000000e+00
3.267000e+00 3.847500e-01 0.000000e+00
3.448500e+00 3.847500e-01 0.000000e+00
3.630000e+00 3.847500e-01 0.000000e+00
2.904000e+00 5.130000e-01 0.000000e+00
[...]
<PointData>
<DataArray type="Float32" Name="V1" format="ascii">
0.000000e+00
0.000000e+00
0.000000e+00
0.000000e+00
0.000000e+00
1.264110e-02
1.103550e-02
9.655160e-03
8.500160e-03
7.570490e-03
2.028400e-02
1.822880e-02
1.639960e-02
1.479620e-02
1.341880e-02
2.292870e-02
2.158000e-02
2.023320e-02
1.888830e-02
1.754510e-02
2.057510e-02
2.108910e-02
2.115620e-02
2.077620e-02
1.994920e-02
0.000000e+00
0.000000e+00
0.000000e+00
0.000000e+00
0.000000e+00
7.570490e-03
6.527600e-03
5.740110e-03
5.208010e-03
4.931300e-03
1.341880e-02
1.187080e-02
1.066380e-02
9.797730e-03
9.272650e-03
1.754510e-02
1.602970e-02
1.477100e-02
1.376920e-02
1.302410e-02
1.994920e-02
1.900420e-02
1.806190e-02
1.712230e-02
1.618550e-02
0.000000e+00
0.000000e+00
0.000000e+00
0.000000e+00
0.000000e+00
4.931300e-03
4.700020e-03
4.536780e-03
4.441560e-03
4.414370e-03
9.272650e-03
8.835730e-03
8.496560e-03
8.255120e-03
8.111420e-03
1.302410e-02
1.240710e-02
1.187930e-02
1.144070e-02
1.109110e-02
1.618550e-02
1.541420e-02
1.468510e-02
1.399820e-02
1.335350e-02
0.000000e+00
0.000000e+00
0.000000e+00
0.000000e+00
0.000000e+00
4.414370e-03
3.736460e-03
3.930820e-03
4.997460e-03
6.936380e-03
8.111420e-03
6.684800e-03
6.809820e-03
8.486480e-03
1.171480e-02
1.109110e-02
8.845030e-03
8.637000e-03
1.046700e-02
1.433520e-02
1.335350e-02
1.021710e-02
9.412360e-03
1.093920e-02
1.479760e-02
0.000000e+00
0.000000e+00
0.000000e+00
0.000000e+00
0.000000e+00
6.936380e-03
5.907740e-03
2.711730e-03
-2.651650e-03
-1.018240e-02
1.171480e-02
8.812160e-03
2.745120e-03
-6.486340e-03
-1.888220e-02
1.433520e-02
8.713250e-03
1.001720e-04
-1.150410e-02
-2.609950e-02
1.479760e-02
5.611010e-03
-5.223120e-03
-1.770480e-02
-3.183410e-02
0.000000e+00
0.000000e+00
0.000000e+00
0.000000e+00
0.000000e+00
-1.018240e-02
-1.154540e-02
-1.313090e-02
-1.493890e-02
-1.696920e-02
-1.888220e-02
-2.016810e-02
-2.208570e-02
-2.463500e-02
-2.781600e-02
-2.609950e-02
-2.586790e-02
-2.686420e-02
-2.908830e-02
-3.254020e-02
-3.183410e-02
-2.864500e-02
-2.746660e-02
-2.829890e-02
-3.114190e-02
0.000000e+00
0.000000e+00
0.000000e+00
0.000000e+00
0.000000e+00
-1.696920e-02
-1.659150e-02
-1.490760e-02
-1.191750e-02
-7.621310e-03
-2.781600e-02
-2.679470e-02
-2.380660e-02
-1.885190e-02
-1.193040e-02
-3.254020e-02
-3.060950e-02
-2.669710e-02
-2.080300e-02
-1.292730e-02
-3.114190e-02
-2.803590e-02
-2.357900e-02
-1.777100e-02
-1.061200e-02
0.000000e+00
0.000000e+00
0.000000e+00
0.000000e+00
0.000000e+00
-7.621310e-03
-5.145560e-03
-2.865240e-03
-7.803480e-04
1.109110e-03
-1.193040e-02
-7.846160e-03
-4.105490e-03
-7.084190e-04
2.345060e-03
-1.292730e-02
-8.101800e-03
-3.720770e-03
2.157870e-04
3.707870e-03
-1.061200e-02
-5.912500e-03
-1.711070e-03
1.992270e-03
5.197520e-03
0.000000e+00
0.000000e+00
0.000000e+00
0.000000e+00
0.000000e+00
1.109110e-03
3.102710e-03
4.671030e-03
5.814060e-03
6.531800e-03
2.345060e-03
5.619190e-03
8.214550e-03
1.013110e-02
1.136900e-02
3.707870e-03
7.549420e-03
1.063050e-02
1.295130e-02
1.451150e-02
5.197520e-03
8.893410e-03
1.191900e-02
1.427440e-02
1.595950e-02
0.000000e+00
0.000000e+00
0.000000e+00
0.000000e+00
0.000000e+00
6.531800e-03
7.186360e-03
7.854250e-03
8.535470e-03
9.230010e-03
1.136900e-02
1.254040e-02
1.369650e-02
1.483730e-02
1.596280e-02
1.451150e-02
1.606210e-02
1.752670e-02
1.890540e-02
2.019820e-02
1.595950e-02
1.775140e-02
1.934490e-02
2.073990e-02
2.193650e-02
2.057510e-02
2.108910e-02
2.115620e-02
2.077620e-02
1.994920e-02
2.078850e-02
2.097700e-02
2.099770e-02
2.085060e-02
2.053570e-02
2.103660e-02
2.096540e-02
2.091230e-02
2.087730e-02
2.086040e-02
2.131930e-02
2.105430e-02
2.090000e-02
2.085620e-02
2.092310e-02
2.163650e-02
2.124370e-02
2.096060e-02
2.078740e-02
2.072400e-02
1.994920e-02
1.900420e-02
1.806190e-02
1.712230e-02
1.618550e-02
2.053570e-02
2.007750e-02
1.952770e-02
1.888630e-02
1.815330e-02
2.086040e-02
2.074320e-02
2.048860e-02
2.009670e-02
1.956720e-02
2.092310e-02
2.100120e-02
2.094470e-02
2.075340e-02
2.042750e-02
2.072400e-02
2.085160e-02
2.089570e-02
2.085650e-02
2.073390e-02
1.618550e-02
1.541420e-02
1.468510e-02
1.399820e-02
1.335350e-02
1.815330e-02
1.736940e-02
1.657000e-02
1.575490e-02
1.492430e-02
1.956720e-02
1.877580e-02
1.795560e-02
1.710680e-02
1.622920e-02
2.042750e-02
1.963340e-02
1.884220e-02
1.805380e-02
1.726840e-02
2.073390e-02
1.994210e-02
1.922950e-02
1.859610e-02
1.804180e-02
1.335350e-02
1.021710e-02
9.412360e-03
1.093920e-02
1.479760e-02
1.492430e-02
1.116210e-02
9.903060e-03
1.114710e-02
1.489420e-02
1.622920e-02
1.197010e-02
1.037030e-02
1.142980e-02
1.514850e-02
1.726840e-02
1.264110e-02
1.081410e-02
1.178720e-02
1.556070e-02
1.804180e-02
1.317510e-02
1.123440e-02
1.221950e-02
1.613050e-02
1.479760e-02
5.611010e-03
-5.223120e-03
-1.770480e-02
-3.183410e-02
1.489420e-02
3.314010e-03
-8.381300e-03
-2.019180e-02
-3.211740e-02
1.514850e-02
2.320340e-03
-9.578260e-03
-2.054730e-02
-3.058670e-02
1.556070e-02
2.630000e-03
-8.814010e-03
-1.877140e-02
-2.724210e-02
1.613050e-02
4.242990e-03
-6.088530e-03
-1.486400e-02
-2.208350e-02
-3.183410e-02
-2.864500e-02
-2.746660e-02
-2.829890e-02
-3.114190e-02
-3.211740e-02
-2.696840e-02
-2.448660e-02
-2.467210e-02
-2.752480e-02
-3.058670e-02
-2.400460e-02
-2.043740e-02
-1.988510e-02
-2.234770e-02
-2.724210e-02
-1.975370e-02
-1.531900e-02
-1.393790e-02
-1.561050e-02
-2.208350e-02
-1.421560e-02
-9.131230e-03
-6.830420e-03
-7.313170e-03
-3.114190e-02
-2.803590e-02
-2.357900e-02
-1.777100e-02
-1.061200e-02
-2.752480e-02
-2.613890e-02
-2.264400e-02
-1.704000e-02
-9.326900e-03
-2.234770e-02
-2.237650e-02
-1.982790e-02
-1.470170e-02
-6.997910e-03
-1.561050e-02
-1.674880e-02
-1.513060e-02
-1.075600e-02
-3.625050e-03
-7.313170e-03
-9.255560e-03
-8.552220e-03
-5.203130e-03
7.916820e-04
-1.061200e-02
-5.912500e-03
-1.711070e-03
1.992270e-03
5.197520e-03
-9.326900e-03
-4.596530e-03
-4.110080e-04
3.229670e-03
6.325510e-03
-6.997910e-03
-2.400310e-03
1.605860e-03
5.020580e-03
7.843870e-03
-3.625050e-03
6.761710e-04
4.339520e-03
7.365000e-03
9.752610e-03
7.916820e-04
4.632910e-03
7.789990e-03
1.026290e-02
1.205170e-02
5.197520e-03
8.893410e-03
1.191900e-02
1.427440e-02
1.595950e-02
6.325510e-03
1.004400e-02
1.303210e-02
1.528960e-02
1.681660e-02
7.843870e-03
1.138450e-02
1.418030e-02
1.623140e-02
1.753780e-02
9.752610e-03
1.291480e-02
1.536390e-02
1.710000e-02
1.812310e-02
1.205170e-02
1.463480e-02
1.658270e-02
1.789530e-02
1.857260e-02
1.595950e-02
1.775140e-02
1.934490e-02
2.073990e-02
2.193650e-02
1.681660e-02
1.863700e-02
2.025150e-02
2.166010e-02
2.286280e-02
1.753780e-02
1.934620e-02
2.093590e-02
2.230660e-02
2.345860e-02
1.812310e-02
1.987910e-02
2.139790e-02
2.267940e-02
2.372380e-02
1.857260e-02
2.023560e-02
2.163760e-02
2.277860e-02
2.365860e-02
2.163650e-02
2.124370e-02
2.096060e-02
2.078740e-02
2.072400e-02
2.197900e-02
2.159640e-02
2.130740e-02
2.111190e-02
2.100980e-02
2.233590e-02
2.198870e-02
2.171460e-02
2.151370e-02
2.138600e-02
2.270730e-02
2.242050e-02
2.218240e-02
2.199300e-02
2.185240e-02
2.309330e-02
2.289180e-02
2.271060e-02
2.254980e-02
2.240920e-02
2.072400e-02
2.085160e-02
2.089570e-02
2.085650e-02
2.073390e-02
2.100980e-02
2.100820e-02
2.100420e-02
2.099760e-02
2.098850e-02
2.138600e-02
2.127140e-02
2.121710e-02
2.122310e-02
2.128940e-02
2.185240e-02
2.164100e-02
2.153460e-02
2.153310e-02
2.163660e-02
2.240920e-02
2.211710e-02
2.195660e-02
2.192760e-02
2.203020e-02
2.073390e-02
1.994210e-02
1.922950e-02
1.859610e-02
1.804180e-02
2.098850e-02
2.006680e-02
1.941580e-02
1.903530e-02
1.892530e-02
2.128940e-02
2.025930e-02
1.966430e-02
1.950450e-02
1.977990e-02
2.163660e-02
2.051940e-02
1.997520e-02
2.000380e-02
2.060540e-02
2.203020e-02
2.084740e-02
2.034840e-02
2.053320e-02
2.140180e-02
1.804180e-02
1.317510e-02
1.123440e-02
1.221950e-02
1.613050e-02
1.892530e-02
1.415850e-02
1.228320e-02
1.329950e-02
1.720740e-02
1.977990e-02
1.532770e-02
1.362820e-02
1.468140e-02
1.848730e-02
2.060540e-02
1.668270e-02
1.526920e-02
1.636510e-02
1.997020e-02
2.140180e-02
1.822350e-02
1.720640e-02
1.835060e-02
2.165610e-02
1.613050e-02
4.242990e-03
-6.088530e-03
-1.486400e-02
-2.208350e-02
1.720740e-02
8.600000e-03
4.334590e-04
-7.292230e-03
-1.457710e-02
1.848730e-02
1.342030e-02
7.579970e-03
9.663900e-04
-6.420470e-03
1.997020e-02
1.870380e-02
1.535100e-02
9.911810e-03
2.386220e-03
2.165610e-02
2.445060e-02
2.374660e-02
1.954400e-02
1.184300e-02
-2.208350e-02
-1.421560e-02
-9.131230e-03
-6.830420e-03
-7.313170e-03
-1.457710e-02
-8.222250e-03
-3.715280e-03
-1.056130e-03
-2.448000e-04
-6.420470e-03
-1.461430e-03
2.642920e-03
5.892570e-03
8.287520e-03
2.386220e-03
6.066880e-03
9.943360e-03
1.401570e-02
1.828380e-02
1.184300e-02
1.436270e-02
1.818600e-02
2.331310e-02
2.974400e-02
-7.313170e-03
-9.255560e-03
-8.552220e-03
-5.203130e-03
7.916820e-04
-2.448000e-04
-1.970520e-03
-1.650080e-03
7.165440e-04
5.129340e-03
8.287520e-03
6.729670e-03
6.462380e-03
7.485660e-03
9.799500e-03
1.828380e-02
1.684500e-02
1.578520e-02
1.510420e-02
1.480220e-02
2.974400e-02
2.837550e-02
2.631830e-02
2.357220e-02
2.013740e-02
7.916820e-04
4.632910e-03
7.789990e-03
1.026290e-02
1.205170e-02
5.129340e-03
8.696460e-03
1.148960e-02
1.350890e-02
1.475410e-02
9.799500e-03
1.283060e-02
1.510730e-02
1.662960e-02
1.739740e-02
1.480220e-02
1.703540e-02
1.864300e-02
1.962510e-02
1.998170e-02
2.013740e-02
2.131070e-02
2.209680e-02
2.249550e-02
2.250690e-02
1.205170e-02
1.463480e-02
1.658270e-02
1.789530e-02
1.857260e-02
1.475410e-02
1.647470e-02
1.776300e-02
1.861920e-02
1.904310e-02
1.739740e-02
1.830330e-02
1.896830e-02
1.939240e-02
1.957560e-02
1.998170e-02
2.012070e-02
2.019840e-02
2.021490e-02
2.017000e-02
2.250690e-02
2.192690e-02
2.145350e-02
2.108670e-02
2.082640e-02
1.857260e-02
2.023560e-02
2.163760e-02
2.277860e-02
2.365860e-02
1.904310e-02
2.081200e-02
2.218450e-02
2.316080e-02
2.374070e-02
1.957560e-02
2.141080e-02
2.273030e-02
2.353410e-02
2.382230e-02
2.017000e-02
2.203190e-02
2.327470e-02
2.389840e-02
2.390310e-02
2.082640e-02
2.267550e-02
2.381800e-02
2.425390e-02
2.398320e-02
2.309330e-02
2.289180e-02
2.271060e-02
2.254980e-02
2.240920e-02
2.348320e-02
2.331920e-02
2.317340e-02
2.304590e-02
2.293670e-02
2.386930e-02
2.373480e-02
2.361910e-02
2.352240e-02
2.344450e-02
2.425160e-02
2.413870e-02
2.404800e-02
2.397920e-02
2.393260e-02
2.463000e-02
2.453100e-02
2.445980e-02
2.441650e-02
2.440100e-02
2.240920e-02
2.211710e-02
2.195660e-02
2.192760e-02
2.203020e-02
2.293670e-02
2.263520e-02
2.246000e-02
2.241100e-02
2.248840e-02
2.344450e-02
2.314590e-02
2.296800e-02
2.291070e-02
2.297420e-02
2.393260e-02
2.364910e-02
2.348050e-02
2.342660e-02
2.348760e-02
2.440100e-02
2.414490e-02
2.399750e-02
2.395880e-02
2.402880e-02
2.203020e-02
2.084740e-02
2.034840e-02
2.053320e-02
2.140180e-02
2.248840e-02
2.144190e-02
2.099980e-02
2.116200e-02
2.192870e-02
2.297420e-02
2.208950e-02
2.171950e-02
2.186410e-02
2.252340e-02
2.348760e-02
2.279030e-02
2.250750e-02
2.263940e-02
2.318590e-02
2.402880e-02
2.354420e-02
2.336390e-02
2.348790e-02
2.391620e-02
2.140180e-02
1.822350e-02
1.720640e-02
1.835060e-02
2.165610e-02
2.192870e-02
1.974630e-02
1.913680e-02
2.010020e-02
2.263650e-02
2.252340e-02
2.115780e-02
2.088280e-02
2.169840e-02
2.360450e-02
2.318590e-02
2.245800e-02
2.244440e-02
2.314510e-02
2.456020e-02
2.391620e-02
2.364670e-02
2.382150e-02
2.444050e-02
2.550370e-02
2.165610e-02
2.445060e-02
2.374660e-02
1.954400e-02
1.184300e-02
2.263650e-02
2.855560e-02
3.091490e-02
2.971430e-02
2.495380e-02
2.360450e-02
3.116160e-02
3.562550e-02
3.699640e-02
3.527420e-02
2.456020e-02
3.226840e-02
3.787850e-02
4.139040e-02
4.280410e-02
2.550370e-02
3.187620e-02
3.767370e-02
4.289610e-02
4.754360e-02
1.184300e-02
1.436270e-02
1.818600e-02
2.331310e-02
2.974400e-02
2.495380e-02
2.699680e-02
3.044500e-02
3.529850e-02
4.155740e-02
3.527420e-02
3.740830e-02
4.066460e-02
4.504300e-02
5.054340e-02
4.280410e-02
4.559730e-02
4.884480e-02
5.254640e-02
5.670220e-02
4.754360e-02
5.156380e-02
5.498550e-02
5.780880e-02
6.003360e-02
2.974400e-02
2.837550e-02
2.631830e-02
2.357220e-02
2.013740e-02
4.155740e-02
3.821560e-02
3.421190e-02
2.954630e-02
2.421870e-02
5.054340e-02
4.548820e-02
4.000470e-02
3.409300e-02
2.775320e-02
5.670220e-02
5.019340e-02
4.369680e-02
3.721260e-02
3.074060e-02
6.003360e-02
5.233110e-02
4.528820e-02
3.890480e-02
3.318110e-02
2.013740e-02
2.131070e-02
2.209680e-02
2.249550e-02
2.250690e-02
2.421870e-02
2.486200e-02
2.517220e-02
2.514930e-02
2.479330e-02
2.775320e-02
2.797790e-02
2.788220e-02
2.746610e-02
2.672950e-02
3.074060e-02
3.065840e-02
3.022690e-02
2.944590e-02
2.831540e-02
3.318110e-02
3.290360e-02
3.220610e-02
3.108860e-02
2.955110e-02
2.250690e-02
2.192690e-02
2.145350e-02
2.108670e-02
2.082640e-02
2.479330e-02
2.361850e-02
2.270850e-02
2.206330e-02
2.168300e-02
2.672950e-02
2.509300e-02
2.385050e-02
2.300190e-02
2.254730e-02
2.831540e-02
2.635040e-02
2.487950e-02
2.390250e-02
2.341950e-02
2.955110e-02
2.739080e-02
2.579540e-02
2.476500e-02
2.429940e-02
2.082640e-02
2.267550e-02
2.381800e-02
2.425390e-02
2.398320e-02
2.168300e-02
2.329090e-02
2.424920e-02
2.455800e-02
2.421710e-02
2.254730e-02
2.389770e-02
2.466470e-02
2.484860e-02
2.444920e-02
2.341950e-02
2.449580e-02
2.506450e-02
2.512570e-02
2.467930e-02
2.429940e-02
2.508520e-02
2.544850e-02
2.538930e-02
2.490760e-02
2.463000e-02
2.453100e-02
2.445980e-02
2.441650e-02
2.440100e-02
2.499690e-02
2.492110e-02
2.487240e-02
2.485080e-02
2.485630e-02
2.534870e-02
2.529900e-02
2.527410e-02
2.527400e-02
2.529860e-02
2.568540e-02
2.566490e-02
2.566510e-02
2.568610e-02
2.572780e-02
2.600690e-02
2.601860e-02
2.604540e-02
2.608720e-02
2.614400e-02
2.440100e-02
2.414490e-02
2.399750e-02
2.395880e-02
2.402880e-02
2.485630e-02
2.463600e-02
2.451580e-02
2.449580e-02
2.457580e-02
2.529860e-02
2.511660e-02
2.502490e-02
2.502350e-02
2.511250e-02
2.572780e-02
2.558650e-02
2.552460e-02
2.554200e-02
2.563860e-02
2.614400e-02
2.604590e-02
2.601500e-02
2.605110e-02
2.615440e-02
2.402880e-02
2.354420e-02
2.336390e-02
2.348790e-02
2.391620e-02
2.457580e-02
2.423770e-02
2.415550e-02
2.432900e-02
2.475850e-02
2.511250e-02
2.489840e-02
2.489870e-02
2.511320e-02
2.554190e-02
2.563860e-02
2.552630e-02
2.559360e-02
2.584030e-02
2.626660e-02
2.615440e-02
2.612140e-02
2.624010e-02
2.651040e-02
2.693240e-02
2.391620e-02
2.364670e-02
2.382150e-02
2.444050e-02
2.550370e-02
2.475850e-02
2.475200e-02
2.508750e-02
2.576510e-02
2.678470e-02
2.554190e-02
2.578240e-02
2.627010e-02
2.700530e-02
2.798780e-02
2.626660e-02
2.673780e-02
2.736930e-02
2.816100e-02
2.911290e-02
2.693240e-02
2.761840e-02
2.838500e-02
2.923220e-02
3.016010e-02
2.550370e-02
3.187620e-02
3.767370e-02
4.289610e-02
4.754360e-02
2.678470e-02
3.181220e-02
3.676290e-02
4.163680e-02
4.643400e-02
2.798780e-02
3.192800e-02
3.607900e-02
4.044080e-02
4.501350e-02
2.911290e-02
3.222360e-02
3.562200e-02
3.930810e-02
4.328190e-02
3.016010e-02
3.269900e-02
3.539190e-02
3.823870e-02
4.123940e-02
4.754360e-02
5.156380e-02
5.498550e-02
5.780880e-02
6.003360e-02
4.643400e-02
5.104150e-02
5.459990e-02
5.710940e-02
5.856990e-02
4.501350e-02
4.969510e-02
5.313730e-02
5.533990e-02
5.630290e-02
4.328190e-02
4.752480e-02
5.059750e-02
5.250020e-02
5.323280e-02
4.123940e-02
4.453040e-02
4.698070e-02
4.859040e-02
4.935940e-02
6.003360e-02
5.233110e-02
4.528820e-02
3.890480e-02
3.318110e-02
5.856990e-02
5.196320e-02
4.592580e-02
4.045780e-02
3.555920e-02
5.630290e-02
5.095910e-02
4.601580e-02
4.147310e-02
3.733090e-02
5.323280e-02
4.931880e-02
4.555810e-02
4.195060e-02
3.849640e-02
4.935940e-02
4.704250e-02
4.455280e-02
4.189050e-02
3.905540e-02
3.318110e-02
3.290360e-02
3.220610e-02
3.108860e-02
2.955110e-02
3.555920e-02
3.447750e-02
3.320560e-02
3.174350e-02
3.009130e-02
3.733090e-02
3.561030e-02
3.390040e-02
3.220120e-02
3.051260e-02
3.849640e-02
3.630220e-02
3.429060e-02
3.246160e-02
3.081520e-02
3.905540e-02
3.655300e-02
3.437610e-02
3.252480e-02
3.099900e-02
2.955110e-02
2.739080e-02
2.579540e-02
2.476500e-02
2.429940e-02
3.009130e-02
2.822660e-02
2.680640e-02
2.583070e-02
2.529940e-02
3.051260e-02
2.893230e-02
2.768430e-02
2.676850e-02
2.618510e-02
3.081520e-02
2.950800e-02
2.842910e-02
2.757860e-02
2.695650e-02
3.099900e-02
2.995350e-02
2.904070e-02
2.826080e-02
2.761360e-02
2.429940e-02
2.508520e-02
2.544850e-02
2.538930e-02
2.490760e-02
2.529940e-02
2.563300e-02
2.572780e-02
2.558390e-02
2.520130e-02
2.618510e-02
2.612080e-02
2.598390e-02
2.577430e-02
2.549200e-02
2.695650e-02
2.654880e-02
2.621680e-02
2.596050e-02
2.577980e-02
2.761360e-02
2.691680e-02
2.642640e-02
2.614240e-02
2.606480e-02
2.600690e-02
2.601860e-02
2.604540e-02
2.608720e-02
2.614400e-02
2.630990e-02
2.635180e-02
2.640480e-02
2.646890e-02
2.654410e-02
2.659390e-02
2.666430e-02
2.674190e-02
2.682690e-02
2.691920e-02
2.685910e-02
2.695610e-02
2.705680e-02
2.716120e-02
2.726940e-02
2.710540e-02
2.722730e-02
2.734940e-02
2.747190e-02
2.759470e-02
2.614400e-02
2.604590e-02
2.601500e-02
2.605110e-02
2.615440e-02
2.654410e-02
2.647930e-02
2.647510e-02
2.653160e-02
2.664870e-02
2.691920e-02
2.688470e-02
2.690450e-02
2.697860e-02
2.710710e-02
2.726940e-02
2.726230e-02
2.730330e-02
2.739240e-02
2.752960e-02
2.759470e-02
2.761190e-02
2.767130e-02
2.777270e-02
2.791620e-02
2.615440e-02
2.612140e-02
2.624010e-02
2.651040e-02
2.693240e-02
2.664870e-02
2.667630e-02
2.683470e-02
2.712400e-02
2.754420e-02
2.710710e-02
2.718850e-02
2.738090e-02
2.768420e-02
2.809840e-02
2.752960e-02
2.765810e-02
2.787860e-02
2.819080e-02
2.859490e-02
2.791620e-02
2.808520e-02
2.832780e-02
2.864400e-02
2.903380e-02
2.693240e-02
2.761840e-02
2.838500e-02
2.923220e-02
3.016010e-02
2.754420e-02
2.828130e-02
2.910420e-02
3.001260e-02
3.100680e-02
2.809840e-02
2.884270e-02
2.967800e-02
3.060430e-02
3.162160e-02
2.859490e-02
2.930250e-02
3.010660e-02
3.100720e-02
3.200440e-02
2.903380e-02
2.966060e-02
3.038980e-02
3.122140e-02
3.215540e-02
3.016010e-02
3.269900e-02
3.539190e-02
3.823870e-02
4.123940e-02
3.100680e-02
3.321280e-02
3.552050e-02
3.792990e-02
4.044090e-02
3.162160e-02
3.354140e-02
3.551500e-02
3.754230e-02
3.962340e-02
3.200440e-02
3.368490e-02
3.537540e-02
3.707610e-02
3.878670e-02
3.215540e-02
3.364320e-02
3.510180e-02
3.653110e-02
3.793100e-02
4.123940e-02
4.453040e-02
4.698070e-02
4.859040e-02
4.935940e-02
4.044090e-02
4.309660e-02
4.505950e-02
4.632960e-02
4.690680e-02
3.962340e-02
4.174490e-02
4.330250e-02
4.429640e-02
4.472640e-02
3.878670e-02
4.047510e-02
4.170980e-02
4.249080e-02
4.281830e-02
3.793100e-02
3.928730e-02
4.028120e-02
4.091290e-02
4.118230e-02
4.935940e-02
4.704250e-02
4.455280e-02
4.189050e-02
3.905540e-02
4.690680e-02
4.505920e-02
4.306590e-02
4.092690e-02
3.864220e-02
4.472640e-02
4.328790e-02
4.171740e-02
4.001500e-02
3.818070e-02
4.281830e-02
4.172840e-02
4.050720e-02
3.915480e-02
3.767100e-02
4.118230e-02
4.038080e-02
3.943540e-02
3.834610e-02
3.711300e-02
3.905540e-02
3.655300e-02
3.437610e-02
3.252480e-02
3.099900e-02
3.864220e-02
3.644800e-02
3.450260e-02
3.280600e-02
3.135800e-02
3.818070e-02
3.626970e-02
3.454360e-02
3.300250e-02
3.164630e-02
3.767100e-02
3.601800e-02
3.449900e-02
3.311430e-02
3.186370e-02
3.711300e-02
3.569280e-02
3.436900e-02
3.314140e-02
3.201020e-02
3.099900e-02
2.995350e-02
2.904070e-02
2.826080e-02
2.761360e-02
3.135800e-02
3.033510e-02
2.943380e-02
2.865420e-02
2.799630e-02
3.164630e-02
3.064340e-02
2.975320e-02
2.897560e-02
2.831060e-02
3.186370e-02
3.087850e-02
2.999890e-02
2.922490e-02
2.855650e-02
3.201020e-02
3.104030e-02
3.017100e-02
2.940220e-02
2.873400e-02
2.761360e-02
2.691680e-02
2.642640e-02
2.614240e-02
2.606480e-02
2.799630e-02
2.730110e-02
2.678120e-02
2.643650e-02
2.626720e-02
2.831060e-02
2.763440e-02
2.709940e-02
2.670580e-02
2.645360e-02
2.855650e-02
2.791660e-02
2.738120e-02
2.695030e-02
2.662390e-02
2.873400e-02
2.814800e-02
2.762660e-02
2.717000e-02
2.677800e-02
2.710540e-02
2.722730e-02
2.734940e-02
2.747190e-02
2.759470e-02
2.733260e-02
2.747000e-02
2.760690e-02
2.774350e-02
2.787970e-02
2.754220e-02
2.769280e-02
2.784200e-02
2.799000e-02
2.813660e-02
2.773410e-02
2.789560e-02
2.805470e-02
2.821130e-02
2.836560e-02
2.790840e-02